h 0.1 1 7 cbr 100 ------- 1 1.0 5.0 0 0
h 0.101 1 7 cbr 100 ------- 1 1.0 5.0 1 1
h 0.102 1 7 cbr 100 ------- 1 1.0 5.0 2 2
h 0.103 1 7 cbr 100 ------- 1 1.0 5.0 3 3
h 0.104 1 7 cbr 100 ------- 1 1.0 5.0 4 4
h 0.105 1 7 cbr 100 ------- 1 1.0 5.0 5 5
h 0.106 1 7 cbr 100 ------- 1 1.0 5.0 6 6
h 0.107 1 7 cbr 100 ------- 1 1.0 5.0 7 7
h 0.108 1 7 cbr 100 ------- 1 1.0 5.0 8 8
h 0.109 1 7 cbr 100 ------- 1 1.0 5.0 9 9
+ 0.11 1 7 cbr 100 ------- 1 1.0 5.0 0 0
- 0.11 1 7 cbr 100 ------- 1 1.0 5.0 0 0
h 0.11 1 7 cbr 100 ------- 1 1.0 5.0 10 10
+ 0.111 1 7 cbr 100 ------- 1 1.0 5.0 1 1
- 0.111 1 7 cbr 100 ------- 1 1.0 5.0 1 1
h 0.111 1 7 cbr 100 ------- 1 1.0 5.0 11 11
+ 0.112 1 7 cbr 100 ------- 1 1.0 5.0 2 2
- 0.112 1 7 cbr 100 ------- 1 1.0 5.0 2 2
h 0.112 1 7 cbr 100 ------- 1 1.0 5.0 12 12
+ 0.113 1 7 cbr 100 ------- 1 1.0 5.0 3 3
- 0.113 1 7 cbr 100 ------- 1 1.0 5.0 3 3
h 0.113 1 7 cbr 100 ------- 1 1.0 5.0 13 13
+ 0.114 1 7 cbr 100 ------- 1 1.0 5.0 4 4
- 0.114 1 7 cbr 100 ------- 1 1.0 5.0 4 4
h 0.114 1 7 cbr 100 ------- 1 1.0 5.0 14 14
+ 0.115 1 7 cbr 100 ------- 1 1.0 5.0 5 5
- 0.115 1 7 cbr 100 ------- 1 1.0 5.0 5 5
h 0.115 1 7 cbr 100 ------- 1 1.0 5.0 15 15
+ 0.116 1 7 cbr 100 ------- 1 1.0 5.0 6 6
- 0.116 1 7 cbr 100 ------- 1 1.0 5.0 6 6
h 0.116 1 7 cbr 100 ------- 1 1.0 5.0 16 16
+ 0.117 1 7 cbr 100 ------- 1 1.0 5.0 7 7
- 0.117 1 7 cbr 100 ------- 1 1.0 5.0 7 7
h 0.117 1 7 cbr 100 ------- 1 1.0 5.0 17 17
+ 0.118 1 7 cbr 100 ------- 1 1.0 5.0 8 8
- 0.118 1 7 cbr 100 ------- 1 1.0 5.0 8 8
h 0.118 1 7 cbr 100 ------- 1 1.0 5.0 18 18
+ 0.119 1 7 cbr 100 ------- 1 1.0 5.0 9 9
- 0.119 1 7 cbr 100 ------- 1 1.0 5.0 9 9
h 0.119 1 7 cbr 100 ------- 1 1.0 5.0 19 19
+ 0.12 1 7 cbr 100 ------- 1 1.0 5.0 10 10
- 0.12 1 7 cbr 100 ------- 1 1.0 5.0 10 10
h 0.12 1 7 cbr 100 ------- 1 1.0 5.0 20 20
r 0.120095 7 2 cbr 100 ------- 1 1.0 5.0 0 0
d 0.120095 2 6 cbr 100 ------- 1 1.0 5.0 0 0
+ 0.121 1 7 cbr 100 ------- 1 1.0 5.0 11 11
- 0.121 1 7 cbr 100 ------- 1 1.0 5.0 11 11
h 0.121 1 7 cbr 100 ------- 1 1.0 5.0 21 21
r 0.121095 7 2 cbr 100 ------- 1 1.0 5.0 1 1
+ 0.121095 2 6 cbr 100 ------- 1 1.0 5.0 1 1
- 0.121095 2 6 cbr 100 ------- 1 1.0 5.0 1 1
+ 0.122 1 7 cbr 100 ------- 1 1.0 5.0 12 12
- 0.122 1 7 cbr 100 ------- 1 1.0 5.0 12 12
h 0.122 1 7 cbr 100 ------- 1 1.0 5.0 22 22
r 0.122095 7 2 cbr 100 ------- 1 1.0 5.0 2 2
d 0.122095 2 6 cbr 100 ------- 1 1.0 5.0 2 2
+ 0.123 1 7 cbr 100 ------- 1 1.0 5.0 13 13
- 0.123 1 7 cbr 100 ------- 1 1.0 5.0 13 13
h 0.123 1 7 cbr 100 ------- 1 1.0 5.0 23 23
r 0.123095 7 2 cbr 100 ------- 1 1.0 5.0 3 3
d 0.123095 2 6 cbr 100 ------- 1 1.0 5.0 3 3
+ 0.124 1 7 cbr 100 ------- 1 1.0 5.0 14 14
- 0.124 1 7 cbr 100 ------- 1 1.0 5.0 14 14
h 0.124 1 7 cbr 100 ------- 1 1.0 5.0 24 24
r 0.124095 7 2 cbr 100 ------- 1 1.0 5.0 4 4
+ 0.124095 2 6 cbr 100 ------- 1 1.0 5.0 4 4
- 0.124095 2 6 cbr 100 ------- 1 1.0 5.0 4 4
+ 0.125 1 7 cbr 100 ------- 1 1.0 5.0 15 15
- 0.125 1 7 cbr 100 ------- 1 1.0 5.0 15 15
h 0.125 1 7 cbr 100 ------- 1 1.0 5.0 25 25
r 0.125095 7 2 cbr 100 ------- 1 1.0 5.0 5 5
+ 0.125095 2 6 cbr 100 ------- 1 1.0 5.0 5 5
- 0.125095 2 6 cbr 100 ------- 1 1.0 5.0 5 5
+ 0.126 1 7 cbr 100 ------- 1 1.0 5.0 16 16
- 0.126 1 7 cbr 100 ------- 1 1.0 5.0 16 16
h 0.126 1 7 cbr 100 ------- 1 1.0 5.0 26 26
r 0.126095 7 2 cbr 100 ------- 1 1.0 5.0 6 6
+ 0.126095 2 6 cbr 100 ------- 1 1.0 5.0 6 6
- 0.126095 2 6 cbr 100 ------- 1 1.0 5.0 6 6
+ 0.127 1 7 cbr 100 ------- 1 1.0 5.0 17 17
- 0.127 1 7 cbr 100 ------- 1 1.0 5.0 17 17
h 0.127 1 7 cbr 100 ------- 1 1.0 5.0 27 27
r 0.127095 7 2 cbr 100 ------- 1 1.0 5.0 7 7
+ 0.127095 2 6 cbr 100 ------- 1 1.0 5.0 7 7
- 0.127095 2 6 cbr 100 ------- 1 1.0 5.0 7 7
+ 0.128 1 7 cbr 100 ------- 1 1.0 5.0 18 18
- 0.128 1 7 cbr 100 ------- 1 1.0 5.0 18 18
h 0.128 1 7 cbr 100 ------- 1 1.0 5.0 28 28
r 0.128095 7 2 cbr 100 ------- 1 1.0 5.0 8 8
+ 0.128095 2 6 cbr 100 ------- 1 1.0 5.0 8 8
- 0.128095 2 6 cbr 100 ------- 1 1.0 5.0 8 8
+ 0.129 1 7 cbr 100 ------- 1 1.0 5.0 19 19
- 0.129 1 7 cbr 100 ------- 1 1.0 5.0 19 19
h 0.129 1 7 cbr 100 ------- 1 1.0 5.0 29 29
r 0.129095 7 2 cbr 100 ------- 1 1.0 5.0 9 9
+ 0.129095 2 6 cbr 100 ------- 1 1.0 5.0 9 9
- 0.129095 2 6 cbr 100 ------- 1 1.0 5.0 9 9
+ 0.13 1 7 cbr 100 ------- 1 1.0 5.0 20 20
- 0.13 1 7 cbr 100 ------- 1 1.0 5.0 20 20
h 0.13 1 7 cbr 100 ------- 1 1.0 5.0 30 30
r 0.130095 7 2 cbr 100 ------- 1 1.0 5.0 10 10
+ 0.130095 2 6 cbr 100 ------- 1 1.0 5.0 10 10
- 0.130095 2 6 cbr 100 ------- 1 1.0 5.0 10 10
+ 0.131 1 7 cbr 100 ------- 1 1.0 5.0 21 21
- 0.131 1 7 cbr 100 ------- 1 1.0 5.0 21 21
h 0.131 1 7 cbr 100 ------- 1 1.0 5.0 31 31
r 0.131095 7 2 cbr 100 ------- 1 1.0 5.0 11 11
+ 0.131095 2 6 cbr 100 ------- 1 1.0 5.0 11 11
- 0.131095 2 6 cbr 100 ------- 1 1.0 5.0 11 11
+ 0.132 1 7 cbr 100 ------- 1 1.0 5.0 22 22
- 0.132 1 7 cbr 100 ------- 1 1.0 5.0 22 22
h 0.132 1 7 cbr 100 ------- 1 1.0 5.0 32 32
r 0.132095 7 2 cbr 100 ------- 1 1.0 5.0 12 12
+ 0.132095 2 6 cbr 100 ------- 1 1.0 5.0 12 12
- 0.132095 2 6 cbr 100 ------- 1 1.0 5.0 12 12
+ 0.133 1 7 cbr 100 ------- 1 1.0 5.0 23 23
- 0.133 1 7 cbr 100 ------- 1 1.0 5.0 23 23
h 0.133 1 7 cbr 100 ------- 1 1.0 5.0 33 33
r 0.133095 7 2 cbr 100 ------- 1 1.0 5.0 13 13
d 0.133095 2 6 cbr 100 ------- 1 1.0 5.0 13 13
+ 0.134 1 7 cbr 100 ------- 1 1.0 5.0 24 24
- 0.134 1 7 cbr 100 ------- 1 1.0 5.0 24 24
h 0.134 1 7 cbr 100 ------- 1 1.0 5.0 34 34
r 0.134095 7 2 cbr 100 ------- 1 1.0 5.0 14 14
+ 0.134095 2 6 cbr 100 ------- 1 1.0 5.0 14 14
- 0.134095 2 6 cbr 100 ------- 1 1.0 5.0 14 14
+ 0.135 1 7 cbr 100 ------- 1 1.0 5.0 25 25
- 0.135 1 7 cbr 100 ------- 1 1.0 5.0 25 25
h 0.135 1 7 cbr 100 ------- 1 1.0 5.0 35 35
r 0.135095 7 2 cbr 100 ------- 1 1.0 5.0 15 15
+ 0.135095 2 6 cbr 100 ------- 1 1.0 5.0 15 15
- 0.135095 2 6 cbr 100 ------- 1 1.0 5.0 15 15
+ 0.136 1 7 cbr 100 ------- 1 1.0 5.0 26 26
- 0.136 1 7 cbr 100 ------- 1 1.0 5.0 26 26
h 0.136 1 7 cbr 100 ------- 1 1.0 5.0 36 36
r 0.136095 7 2 cbr 100 ------- 1 1.0 5.0 16 16
+ 0.136095 2 6 cbr 100 ------- 1 1.0 5.0 16 16
- 0.136095 2 6 cbr 100 ------- 1 1.0 5.0 16 16
+ 0.137 1 7 cbr 100 ------- 1 1.0 5.0 27 27
- 0.137 1 7 cbr 100 ------- 1 1.0 5.0 27 27
h 0.137 1 7 cbr 100 ------- 1 1.0 5.0 37 37
r 0.137095 7 2 cbr 100 ------- 1 1.0 5.0 17 17
+ 0.137095 2 6 cbr 100 ------- 1 1.0 5.0 17 17
- 0.137095 2 6 cbr 100 ------- 1 1.0 5.0 17 17
+ 0.138 1 7 cbr 100 ------- 1 1.0 5.0 28 28
- 0.138 1 7 cbr 100 ------- 1 1.0 5.0 28 28
h 0.138 1 7 cbr 100 ------- 1 1.0 5.0 38 38
r 0.138095 7 2 cbr 100 ------- 1 1.0 5.0 18 18
+ 0.138095 2 6 cbr 100 ------- 1 1.0 5.0 18 18
- 0.138095 2 6 cbr 100 ------- 1 1.0 5.0 18 18
+ 0.139 1 7 cbr 100 ------- 1 1.0 5.0 29 29
- 0.139 1 7 cbr 100 ------- 1 1.0 5.0 29 29
h 0.139 1 7 cbr 100 ------- 1 1.0 5.0 39 39
r 0.139095 7 2 cbr 100 ------- 1 1.0 5.0 19 19
d 0.139095 2 6 cbr 100 ------- 1 1.0 5.0 19 19
+ 0.14 1 7 cbr 100 ------- 1 1.0 5.0 30 30
- 0.14 1 7 cbr 100 ------- 1 1.0 5.0 30 30
h 0.14 1 7 cbr 100 ------- 1 1.0 5.0 40 40
r 0.140095 7 2 cbr 100 ------- 1 1.0 5.0 20 20
+ 0.140095 2 6 cbr 100 ------- 1 1.0 5.0 20 20
- 0.140095 2 6 cbr 100 ------- 1 1.0 5.0 20 20
+ 0.141 1 7 cbr 100 ------- 1 1.0 5.0 31 31
- 0.141 1 7 cbr 100 ------- 1 1.0 5.0 31 31
h 0.141 1 7 cbr 100 ------- 1 1.0 5.0 41 41
r 0.141095 7 2 cbr 100 ------- 1 1.0 5.0 21 21
+ 0.141095 2 6 cbr 100 ------- 1 1.0 5.0 21 21
- 0.141095 2 6 cbr 100 ------- 1 1.0 5.0 21 21
+ 0.142 1 7 cbr 100 ------- 1 1.0 5.0 32 32
- 0.142 1 7 cbr 100 ------- 1 1.0 5.0 32 32
h 0.142 1 7 cbr 100 ------- 1 1.0 5.0 42 42
r 0.142095 7 2 cbr 100 ------- 1 1.0 5.0 22 22
+ 0.142095 2 6 cbr 100 ------- 1 1.0 5.0 22 22
- 0.142095 2 6 cbr 100 ------- 1 1.0 5.0 22 22
+ 0.143 1 7 cbr 100 ------- 1 1.0 5.0 33 33
- 0.143 1 7 cbr 100 ------- 1 1.0 5.0 33 33
h 0.143 1 7 cbr 100 ------- 1 1.0 5.0 43 43
r 0.143095 7 2 cbr 100 ------- 1 1.0 5.0 23 23
+ 0.143095 2 6 cbr 100 ------- 1 1.0 5.0 23 23
- 0.143095 2 6 cbr 100 ------- 1 1.0 5.0 23 23
+ 0.144 1 7 cbr 100 ------- 1 1.0 5.0 34 34
- 0.144 1 7 cbr 100 ------- 1 1.0 5.0 34 34
h 0.144 1 7 cbr 100 ------- 1 1.0 5.0 44 44
r 0.144095 7 2 cbr 100 ------- 1 1.0 5.0 24 24
+ 0.144095 2 6 cbr 100 ------- 1 1.0 5.0 24 24
- 0.144095 2 6 cbr 100 ------- 1 1.0 5.0 24 24
+ 0.145 1 7 cbr 100 ------- 1 1.0 5.0 35 35
- 0.145 1 7 cbr 100 ------- 1 1.0 5.0 35 35
h 0.145 1 7 cbr 100 ------- 1 1.0 5.0 45 45
r 0.145095 7 2 cbr 100 ------- 1 1.0 5.0 25 25
+ 0.145095 2 6 cbr 100 ------- 1 1.0 5.0 25 25
- 0.145095 2 6 cbr 100 ------- 1 1.0 5.0 25 25
+ 0.146 1 7 cbr 100 ------- 1 1.0 5.0 36 36
- 0.146 1 7 cbr 100 ------- 1 1.0 5.0 36 36
h 0.146 1 7 cbr 100 ------- 1 1.0 5.0 46 46
r 0.146095 7 2 cbr 100 ------- 1 1.0 5.0 26 26
+ 0.146095 2 6 cbr 100 ------- 1 1.0 5.0 26 26
- 0.146095 2 6 cbr 100 ------- 1 1.0 5.0 26 26
+ 0.147 1 7 cbr 100 ------- 1 1.0 5.0 37 37
- 0.147 1 7 cbr 100 ------- 1 1.0 5.0 37 37
h 0.147 1 7 cbr 100 ------- 1 1.0 5.0 47 47
r 0.147095 7 2 cbr 100 ------- 1 1.0 5.0 27 27
+ 0.147095 2 6 cbr 100 ------- 1 1.0 5.0 27 27
- 0.147095 2 6 cbr 100 ------- 1 1.0 5.0 27 27
+ 0.148 1 7 cbr 100 ------- 1 1.0 5.0 38 38
- 0.148 1 7 cbr 100 ------- 1 1.0 5.0 38 38
h 0.148 1 7 cbr 100 ------- 1 1.0 5.0 48 48
r 0.148095 7 2 cbr 100 ------- 1 1.0 5.0 28 28
+ 0.148095 2 6 cbr 100 ------- 1 1.0 5.0 28 28
- 0.148095 2 6 cbr 100 ------- 1 1.0 5.0 28 28
+ 0.149 1 7 cbr 100 ------- 1 1.0 5.0 39 39
- 0.149 1 7 cbr 100 ------- 1 1.0 5.0 39 39
h 0.149 1 7 cbr 100 ------- 1 1.0 5.0 49 49
r 0.149095 7 2 cbr 100 ------- 1 1.0 5.0 29 29
+ 0.149095 2 6 cbr 100 ------- 1 1.0 5.0 29 29
- 0.149095 2 6 cbr 100 ------- 1 1.0 5.0 29 29
+ 0.15 1 7 cbr 100 ------- 1 1.0 5.0 40 40
- 0.15 1 7 cbr 100 ------- 1 1.0 5.0 40 40
h 0.15 1 7 cbr 100 ------- 1 1.0 5.0 50 50
r 0.150095 7 2 cbr 100 ------- 1 1.0 5.0 30 30
+ 0.150095 2 6 cbr 100 ------- 1 1.0 5.0 30 30
- 0.150095 2 6 cbr 100 ------- 1 1.0 5.0 30 30
+ 0.151 1 7 cbr 100 ------- 1 1.0 5.0 41 41
- 0.151 1 7 cbr 100 ------- 1 1.0 5.0 41 41
h 0.151 1 7 cbr 100 ------- 1 1.0 5.0 51 51
r 0.151095 7 2 cbr 100 ------- 1 1.0 5.0 31 31
+ 0.151095 2 6 cbr 100 ------- 1 1.0 5.0 31 31
- 0.151095 2 6 cbr 100 ------- 1 1.0 5.0 31 31
+ 0.152 1 7 cbr 100 ------- 1 1.0 5.0 42 42
- 0.152 1 7 cbr 100 ------- 1 1.0 5.0 42 42
h 0.152 1 7 cbr 100 ------- 1 1.0 5.0 52 52
r 0.152095 7 2 cbr 100 ------- 1 1.0 5.0 32 32
+ 0.152095 2 6 cbr 100 ------- 1 1.0 5.0 32 32
- 0.152095 2 6 cbr 100 ------- 1 1.0 5.0 32 32
+ 0.153 1 7 cbr 100 ------- 1 1.0 5.0 43 43
- 0.153 1 7 cbr 100 ------- 1 1.0 5.0 43 43
h 0.153 1 7 cbr 100 ------- 1 1.0 5.0 53 53
r 0.153095 7 2 cbr 100 ------- 1 1.0 5.0 33 33
+ 0.153095 2 6 cbr 100 ------- 1 1.0 5.0 33 33
- 0.153095 2 6 cbr 100 ------- 1 1.0 5.0 33 33
+ 0.154 1 7 cbr 100 ------- 1 1.0 5.0 44 44
- 0.154 1 7 cbr 100 ------- 1 1.0 5.0 44 44
h 0.154 1 7 cbr 100 ------- 1 1.0 5.0 54 54
r 0.154095 7 2 cbr 100 ------- 1 1.0 5.0 34 34
+ 0.154095 2 6 cbr 100 ------- 1 1.0 5.0 34 34
- 0.154095 2 6 cbr 100 ------- 1 1.0 5.0 34 34
+ 0.155 1 7 cbr 100 ------- 1 1.0 5.0 45 45
- 0.155 1 7 cbr 100 ------- 1 1.0 5.0 45 45
h 0.155 1 7 cbr 100 ------- 1 1.0 5.0 55 55
r 0.155095 7 2 cbr 100 ------- 1 1.0 5.0 35 35
+ 0.155095 2 6 cbr 100 ------- 1 1.0 5.0 35 35
- 0.155095 2 6 cbr 100 ------- 1 1.0 5.0 35 35
+ 0.156 1 7 cbr 100 ------- 1 1.0 5.0 46 46
- 0.156 1 7 cbr 100 ------- 1 1.0 5.0 46 46
h 0.156 1 7 cbr 100 ------- 1 1.0 5.0 56 56
r 0.156095 7 2 cbr 100 ------- 1 1.0 5.0 36 36
+ 0.156095 2 6 cbr 100 ------- 1 1.0 5.0 36 36
- 0.156095 2 6 cbr 100 ------- 1 1.0 5.0 36 36
+ 0.157 1 7 cbr 100 ------- 1 1.0 5.0 47 47
- 0.157 1 7 cbr 100 ------- 1 1.0 5.0 47 47
h 0.157 1 7 cbr 100 ------- 1 1.0 5.0 57 57
r 0.157095 7 2 cbr 100 ------- 1 1.0 5.0 37 37
+ 0.157095 2 6 cbr 100 ------- 1 1.0 5.0 37 37
- 0.157095 2 6 cbr 100 ------- 1 1.0 5.0 37 37
+ 0.158 1 7 cbr 100 ------- 1 1.0 5.0 48 48
- 0.158 1 7 cbr 100 ------- 1 1.0 5.0 48 48
h 0.158 1 7 cbr 100 ------- 1 1.0 5.0 58 58
r 0.158095 7 2 cbr 100 ------- 1 1.0 5.0 38 38
+ 0.158095 2 6 cbr 100 ------- 1 1.0 5.0 38 38
- 0.158095 2 6 cbr 100 ------- 1 1.0 5.0 38 38
+ 0.159 1 7 cbr 100 ------- 1 1.0 5.0 49 49
- 0.159 1 7 cbr 100 ------- 1 1.0 5.0 49 49
h 0.159 1 7 cbr 100 ------- 1 1.0 5.0 59 59
r 0.159095 7 2 cbr 100 ------- 1 1.0 5.0 39 39
+ 0.159095 2 6 cbr 100 ------- 1 1.0 5.0 39 39
- 0.159095 2 6 cbr 100 ------- 1 1.0 5.0 39 39
+ 0.16 1 7 cbr 100 ------- 1 1.0 5.0 50 50
- 0.16 1 7 cbr 100 ------- 1 1.0 5.0 50 50
h 0.16 1 7 cbr 100 ------- 1 1.0 5.0 60 60
r 0.160095 7 2 cbr 100 ------- 1 1.0 5.0 40 40
+ 0.160095 2 6 cbr 100 ------- 1 1.0 5.0 40 40
- 0.160095 2 6 cbr 100 ------- 1 1.0 5.0 40 40
+ 0.161 1 7 cbr 100 ------- 1 1.0 5.0 51 51
- 0.161 1 7 cbr 100 ------- 1 1.0 5.0 51 51
h 0.161 1 7 cbr 100 ------- 1 1.0 5.0 61 61
r 0.161095 7 2 cbr 100 ------- 1 1.0 5.0 41 41
+ 0.161095 2 6 cbr 100 ------- 1 1.0 5.0 41 41
- 0.161095 2 6 cbr 100 ------- 1 1.0 5.0 41 41
+ 0.162 1 7 cbr 100 ------- 1 1.0 5.0 52 52
- 0.162 1 7 cbr 100 ------- 1 1.0 5.0 52 52
h 0.162 1 7 cbr 100 ------- 1 1.0 5.0 62 62
r 0.162095 7 2 cbr 100 ------- 1 1.0 5.0 42 42
+ 0.162095 2 6 cbr 100 ------- 1 1.0 5.0 42 42
- 0.162095 2 6 cbr 100 ------- 1 1.0 5.0 42 42
+ 0.163 1 7 cbr 100 ------- 1 1.0 5.0 53 53
- 0.163 1 7 cbr 100 ------- 1 1.0 5.0 53 53
h 0.163 1 7 cbr 100 ------- 1 1.0 5.0 63 63
r 0.163095 7 2 cbr 100 ------- 1 1.0 5.0 43 43
d 0.163095 2 6 cbr 100 ------- 1 1.0 5.0 43 43
+ 0.164 1 7 cbr 100 ------- 1 1.0 5.0 54 54
- 0.164 1 7 cbr 100 ------- 1 1.0 5.0 54 54
h 0.164 1 7 cbr 100 ------- 1 1.0 5.0 64 64
r 0.164095 7 2 cbr 100 ------- 1 1.0 5.0 44 44
d 0.164095 2 6 cbr 100 ------- 1 1.0 5.0 44 44
+ 0.165 1 7 cbr 100 ------- 1 1.0 5.0 55 55
- 0.165 1 7 cbr 100 ------- 1 1.0 5.0 55 55
h 0.165 1 7 cbr 100 ------- 1 1.0 5.0 65 65
r 0.165095 7 2 cbr 100 ------- 1 1.0 5.0 45 45
+ 0.165095 2 6 cbr 100 ------- 1 1.0 5.0 45 45
- 0.165095 2 6 cbr 100 ------- 1 1.0 5.0 45 45
+ 0.166 1 7 cbr 100 ------- 1 1.0 5.0 56 56
- 0.166 1 7 cbr 100 ------- 1 1.0 5.0 56 56
h 0.166 1 7 cbr 100 ------- 1 1.0 5.0 66 66
r 0.166095 7 2 cbr 100 ------- 1 1.0 5.0 46 46
+ 0.166095 2 6 cbr 100 ------- 1 1.0 5.0 46 46
- 0.166095 2 6 cbr 100 ------- 1 1.0 5.0 46 46
+ 0.167 1 7 cbr 100 ------- 1 1.0 5.0 57 57
- 0.167 1 7 cbr 100 ------- 1 1.0 5.0 57 57
h 0.167 1 7 cbr 100 ------- 1 1.0 5.0 67 67
r 0.167095 7 2 cbr 100 ------- 1 1.0 5.0 47 47
+ 0.167095 2 6 cbr 100 ------- 1 1.0 5.0 47 47
- 0.167095 2 6 cbr 100 ------- 1 1.0 5.0 47 47
+ 0.168 1 7 cbr 100 ------- 1 1.0 5.0 58 58
- 0.168 1 7 cbr 100 ------- 1 1.0 5.0 58 58
h 0.168 1 7 cbr 100 ------- 1 1.0 5.0 68 68
r 0.168095 7 2 cbr 100 ------- 1 1.0 5.0 48 48
+ 0.168095 2 6 cbr 100 ------- 1 1.0 5.0 48 48
- 0.168095 2 6 cbr 100 ------- 1 1.0 5.0 48 48
+ 0.169 1 7 cbr 100 ------- 1 1.0 5.0 59 59
- 0.169 1 7 cbr 100 ------- 1 1.0 5.0 59 59
h 0.169 1 7 cbr 100 ------- 1 1.0 5.0 69 69
r 0.169095 7 2 cbr 100 ------- 1 1.0 5.0 49 49
+ 0.169095 2 6 cbr 100 ------- 1 1.0 5.0 49 49
- 0.169095 2 6 cbr 100 ------- 1 1.0 5.0 49 49
+ 0.17 1 7 cbr 100 ------- 1 1.0 5.0 60 60
- 0.17 1 7 cbr 100 ------- 1 1.0 5.0 60 60
h 0.17 1 7 cbr 100 ------- 1 1.0 5.0 70 70
r 0.170095 7 2 cbr 100 ------- 1 1.0 5.0 50 50
+ 0.170095 2 6 cbr 100 ------- 1 1.0 5.0 50 50
- 0.170095 2 6 cbr 100 ------- 1 1.0 5.0 50 50
+ 0.171 1 7 cbr 100 ------- 1 1.0 5.0 61 61
- 0.171 1 7 cbr 100 ------- 1 1.0 5.0 61 61
h 0.171 1 7 cbr 100 ------- 1 1.0 5.0 71 71
r 0.171095 7 2 cbr 100 ------- 1 1.0 5.0 51 51
+ 0.171095 2 6 cbr 100 ------- 1 1.0 5.0 51 51
- 0.171095 2 6 cbr 100 ------- 1 1.0 5.0 51 51
+ 0.172 1 7 cbr 100 ------- 1 1.0 5.0 62 62
- 0.172 1 7 cbr 100 ------- 1 1.0 5.0 62 62
h 0.172 1 7 cbr 100 ------- 1 1.0 5.0 72 72
r 0.172095 7 2 cbr 100 ------- 1 1.0 5.0 52 52
+ 0.172095 2 6 cbr 100 ------- 1 1.0 5.0 52 52
- 0.172095 2 6 cbr 100 ------- 1 1.0 5.0 52 52
+ 0.173 1 7 cbr 100 ------- 1 1.0 5.0 63 63
- 0.173 1 7 cbr 100 ------- 1 1.0 5.0 63 63
h 0.173 1 7 cbr 100 ------- 1 1.0 5.0 73 73
r 0.173095 7 2 cbr 100 ------- 1 1.0 5.0 53 53
+ 0.173095 2 6 cbr 100 ------- 1 1.0 5.0 53 53
- 0.173095 2 6 cbr 100 ------- 1 1.0 5.0 53 53
+ 0.174 1 7 cbr 100 ------- 1 1.0 5.0 64 64
- 0.174 1 7 cbr 100 ------- 1 1.0 5.0 64 64
h 0.174 1 7 cbr 100 ------- 1 1.0 5.0 74 74
r 0.174095 7 2 cbr 100 ------- 1 1.0 5.0 54 54
+ 0.174095 2 6 cbr 100 ------- 1 1.0 5.0 54 54
- 0.174095 2 6 cbr 100 ------- 1 1.0 5.0 54 54
+ 0.175 1 7 cbr 100 ------- 1 1.0 5.0 65 65
- 0.175 1 7 cbr 100 ------- 1 1.0 5.0 65 65
h 0.175 1 7 cbr 100 ------- 1 1.0 5.0 75 75
r 0.175095 7 2 cbr 100 ------- 1 1.0 5.0 55 55
+ 0.175095 2 6 cbr 100 ------- 1 1.0 5.0 55 55
- 0.175095 2 6 cbr 100 ------- 1 1.0 5.0 55 55
+ 0.176 1 7 cbr 100 ------- 1 1.0 5.0 66 66
- 0.176 1 7 cbr 100 ------- 1 1.0 5.0 66 66
h 0.176 1 7 cbr 100 ------- 1 1.0 5.0 76 76
r 0.176095 7 2 cbr 100 ------- 1 1.0 5.0 56 56
d 0.176095 2 6 cbr 100 ------- 1 1.0 5.0 56 56
+ 0.177 1 7 cbr 100 ------- 1 1.0 5.0 67 67
- 0.177 1 7 cbr 100 ------- 1 1.0 5.0 67 67
h 0.177 1 7 cbr 100 ------- 1 1.0 5.0 77 77
r 0.177095 7 2 cbr 100 ------- 1 1.0 5.0 57 57
+ 0.177095 2 6 cbr 100 ------- 1 1.0 5.0 57 57
- 0.177095 2 6 cbr 100 ------- 1 1.0 5.0 57 57
+ 0.178 1 7 cbr 100 ------- 1 1.0 5.0 68 68
- 0.178 1 7 cbr 100 ------- 1 1.0 5.0 68 68
h 0.178 1 7 cbr 100 ------- 1 1.0 5.0 78 78
r 0.178095 7 2 cbr 100 ------- 1 1.0 5.0 58 58
+ 0.178095 2 6 cbr 100 ------- 1 1.0 5.0 58 58
- 0.178095 2 6 cbr 100 ------- 1 1.0 5.0 58 58
+ 0.179 1 7 cbr 100 ------- 1 1.0 5.0 69 69
- 0.179 1 7 cbr 100 ------- 1 1.0 5.0 69 69
h 0.179 1 7 cbr 100 ------- 1 1.0 5.0 79 79
r 0.179095 7 2 cbr 100 ------- 1 1.0 5.0 59 59
+ 0.179095 2 6 cbr 100 ------- 1 1.0 5.0 59 59
- 0.179095 2 6 cbr 100 ------- 1 1.0 5.0 59 59
+ 0.18 1 7 cbr 100 ------- 1 1.0 5.0 70 70
- 0.18 1 7 cbr 100 ------- 1 1.0 5.0 70 70
h 0.18 1 7 cbr 100 ------- 1 1.0 5.0 80 80
r 0.180095 7 2 cbr 100 ------- 1 1.0 5.0 60 60
+ 0.180095 2 6 cbr 100 ------- 1 1.0 5.0 60 60
- 0.180095 2 6 cbr 100 ------- 1 1.0 5.0 60 60
+ 0.181 1 7 cbr 100 ------- 1 1.0 5.0 71 71
- 0.181 1 7 cbr 100 ------- 1 1.0 5.0 71 71
h 0.181 1 7 cbr 100 ------- 1 1.0 5.0 81 81
r 0.181095 7 2 cbr 100 ------- 1 1.0 5.0 61 61
+ 0.181095 2 6 cbr 100 ------- 1 1.0 5.0 61 61
- 0.181095 2 6 cbr 100 ------- 1 1.0 5.0 61 61
+ 0.182 1 7 cbr 100 ------- 1 1.0 5.0 72 72
- 0.182 1 7 cbr 100 ------- 1 1.0 5.0 72 72
h 0.182 1 7 cbr 100 ------- 1 1.0 5.0 82 82
r 0.182095 7 2 cbr 100 ------- 1 1.0 5.0 62 62
+ 0.182095 2 6 cbr 100 ------- 1 1.0 5.0 62 62
- 0.182095 2 6 cbr 100 ------- 1 1.0 5.0 62 62
+ 0.183 1 7 cbr 100 ------- 1 1.0 5.0 73 73
- 0.183 1 7 cbr 100 ------- 1 1.0 5.0 73 73
h 0.183 1 7 cbr 100 ------- 1 1.0 5.0 83 83
r 0.183095 7 2 cbr 100 ------- 1 1.0 5.0 63 63
+ 0.183095 2 6 cbr 100 ------- 1 1.0 5.0 63 63
- 0.183095 2 6 cbr 100 ------- 1 1.0 5.0 63 63
+ 0.184 1 7 cbr 100 ------- 1 1.0 5.0 74 74
- 0.184 1 7 cbr 100 ------- 1 1.0 5.0 74 74
h 0.184 1 7 cbr 100 ------- 1 1.0 5.0 84 84
r 0.184095 7 2 cbr 100 ------- 1 1.0 5.0 64 64
+ 0.184095 2 6 cbr 100 ------- 1 1.0 5.0 64 64
- 0.184095 2 6 cbr 100 ------- 1 1.0 5.0 64 64
+ 0.185 1 7 cbr 100 ------- 1 1.0 5.0 75 75
- 0.185 1 7 cbr 100 ------- 1 1.0 5.0 75 75
h 0.185 1 7 cbr 100 ------- 1 1.0 5.0 85 85
r 0.185095 7 2 cbr 100 ------- 1 1.0 5.0 65 65
+ 0.185095 2 6 cbr 100 ------- 1 1.0 5.0 65 65
- 0.185095 2 6 cbr 100 ------- 1 1.0 5.0 65 65
+ 0.186 1 7 cbr 100 ------- 1 1.0 5.0 76 76
- 0.186 1 7 cbr 100 ------- 1 1.0 5.0 76 76
h 0.186 1 7 cbr 100 ------- 1 1.0 5.0 86 86
r 0.186095 7 2 cbr 100 ------- 1 1.0 5.0 66 66
d 0.186095 2 6 cbr 100 ------- 1 1.0 5.0 66 66
+ 0.187 1 7 cbr 100 ------- 1 1.0 5.0 77 77
- 0.187 1 7 cbr 100 ------- 1 1.0 5.0 77 77
h 0.187 1 7 cbr 100 ------- 1 1.0 5.0 87 87
r 0.187095 7 2 cbr 100 ------- 1 1.0 5.0 67 67
+ 0.187095 2 6 cbr 100 ------- 1 1.0 5.0 67 67
- 0.187095 2 6 cbr 100 ------- 1 1.0 5.0 67 67
+ 0.188 1 7 cbr 100 ------- 1 1.0 5.0 78 78
- 0.188 1 7 cbr 100 ------- 1 1.0 5.0 78 78
h 0.188 1 7 cbr 100 ------- 1 1.0 5.0 88 88
r 0.188095 7 2 cbr 100 ------- 1 1.0 5.0 68 68
d 0.188095 2 6 cbr 100 ------- 1 1.0 5.0 68 68
+ 0.189 1 7 cbr 100 ------- 1 1.0 5.0 79 79
- 0.189 1 7 cbr 100 ------- 1 1.0 5.0 79 79
h 0.189 1 7 cbr 100 ------- 1 1.0 5.0 89 89
r 0.189095 7 2 cbr 100 ------- 1 1.0 5.0 69 69
+ 0.189095 2 6 cbr 100 ------- 1 1.0 5.0 69 69
- 0.189095 2 6 cbr 100 ------- 1 1.0 5.0 69 69
+ 0.19 1 7 cbr 100 ------- 1 1.0 5.0 80 80
- 0.19 1 7 cbr 100 ------- 1 1.0 5.0 80 80
h 0.19 1 7 cbr 100 ------- 1 1.0 5.0 90 90
r 0.190095 7 2 cbr 100 ------- 1 1.0 5.0 70 70
+ 0.190095 2 6 cbr 100 ------- 1 1.0 5.0 70 70
- 0.190095 2 6 cbr 100 ------- 1 1.0 5.0 70 70
+ 0.191 1 7 cbr 100 ------- 1 1.0 5.0 81 81
- 0.191 1 7 cbr 100 ------- 1 1.0 5.0 81 81
h 0.191 1 7 cbr 100 ------- 1 1.0 5.0 91 91
r 0.191095 7 2 cbr 100 ------- 1 1.0 5.0 71 71
+ 0.191095 2 6 cbr 100 ------- 1 1.0 5.0 71 71
- 0.191095 2 6 cbr 100 ------- 1 1.0 5.0 71 71
+ 0.192 1 7 cbr 100 ------- 1 1.0 5.0 82 82
- 0.192 1 7 cbr 100 ------- 1 1.0 5.0 82 82
h 0.192 1 7 cbr 100 ------- 1 1.0 5.0 92 92
r 0.192095 7 2 cbr 100 ------- 1 1.0 5.0 72 72
+ 0.192095 2 6 cbr 100 ------- 1 1.0 5.0 72 72
- 0.192095 2 6 cbr 100 ------- 1 1.0 5.0 72 72
+ 0.193 1 7 cbr 100 ------- 1 1.0 5.0 83 83
- 0.193 1 7 cbr 100 ------- 1 1.0 5.0 83 83
h 0.193 1 7 cbr 100 ------- 1 1.0 5.0 93 93
r 0.193095 7 2 cbr 100 ------- 1 1.0 5.0 73 73
d 0.193095 2 6 cbr 100 ------- 1 1.0 5.0 73 73
+ 0.194 1 7 cbr 100 ------- 1 1.0 5.0 84 84
- 0.194 1 7 cbr 100 ------- 1 1.0 5.0 84 84
h 0.194 1 7 cbr 100 ------- 1 1.0 5.0 94 94
r 0.194095 7 2 cbr 100 ------- 1 1.0 5.0 74 74
+ 0.194095 2 6 cbr 100 ------- 1 1.0 5.0 74 74
- 0.194095 2 6 cbr 100 ------- 1 1.0 5.0 74 74
+ 0.195 1 7 cbr 100 ------- 1 1.0 5.0 85 85
- 0.195 1 7 cbr 100 ------- 1 1.0 5.0 85 85
h 0.195 1 7 cbr 100 ------- 1 1.0 5.0 95 95
r 0.195095 7 2 cbr 100 ------- 1 1.0 5.0 75 75
+ 0.195095 2 6 cbr 100 ------- 1 1.0 5.0 75 75
- 0.195095 2 6 cbr 100 ------- 1 1.0 5.0 75 75
+ 0.196 1 7 cbr 100 ------- 1 1.0 5.0 86 86
- 0.196 1 7 cbr 100 ------- 1 1.0 5.0 86 86
h 0.196 1 7 cbr 100 ------- 1 1.0 5.0 96 96
r 0.196095 7 2 cbr 100 ------- 1 1.0 5.0 76 76
+ 0.196095 2 6 cbr 100 ------- 1 1.0 5.0 76 76
- 0.196095 2 6 cbr 100 ------- 1 1.0 5.0 76 76
+ 0.197 1 7 cbr 100 ------- 1 1.0 5.0 87 87
- 0.197 1 7 cbr 100 ------- 1 1.0 5.0 87 87
h 0.197 1 7 cbr 100 ------- 1 1.0 5.0 97 97
r 0.197095 7 2 cbr 100 ------- 1 1.0 5.0 77 77
+ 0.197095 2 6 cbr 100 ------- 1 1.0 5.0 77 77
- 0.197095 2 6 cbr 100 ------- 1 1.0 5.0 77 77
+ 0.198 1 7 cbr 100 ------- 1 1.0 5.0 88 88
- 0.198 1 7 cbr 100 ------- 1 1.0 5.0 88 88
h 0.198 1 7 cbr 100 ------- 1 1.0 5.0 98 98
r 0.198095 7 2 cbr 100 ------- 1 1.0 5.0 78 78
+ 0.198095 2 6 cbr 100 ------- 1 1.0 5.0 78 78
- 0.198095 2 6 cbr 100 ------- 1 1.0 5.0 78 78
+ 0.199 1 7 cbr 100 ------- 1 1.0 5.0 89 89
- 0.199 1 7 cbr 100 ------- 1 1.0 5.0 89 89
h 0.199 1 7 cbr 100 ------- 1 1.0 5.0 99 99
r 0.199095 7 2 cbr 100 ------- 1 1.0 5.0 79 79
+ 0.199095 2 6 cbr 100 ------- 1 1.0 5.0 79 79
- 0.199095 2 6 cbr 100 ------- 1 1.0 5.0 79 79
+ 0.2 1 7 cbr 100 ------- 1 1.0 5.0 90 90
- 0.2 1 7 cbr 100 ------- 1 1.0 5.0 90 90
h 0.2 1 7 cbr 100 ------- 1 1.0 5.0 100 100
r 0.200095 7 2 cbr 100 ------- 1 1.0 5.0 80 80
+ 0.200095 2 6 cbr 100 ------- 1 1.0 5.0 80 80
- 0.200095 2 6 cbr 100 ------- 1 1.0 5.0 80 80
+ 0.201 1 7 cbr 100 ------- 1 1.0 5.0 91 91
- 0.201 1 7 cbr 100 ------- 1 1.0 5.0 91 91
h 0.201 1 7 cbr 100 ------- 1 1.0 5.0 101 101
r 0.201095 7 2 cbr 100 ------- 1 1.0 5.0 81 81
+ 0.201095 2 6 cbr 100 ------- 1 1.0 5.0 81 81
- 0.201095 2 6 cbr 100 ------- 1 1.0 5.0 81 81
+ 0.202 1 7 cbr 100 ------- 1 1.0 5.0 92 92
- 0.202 1 7 cbr 100 ------- 1 1.0 5.0 92 92
h 0.202 1 7 cbr 100 ------- 1 1.0 5.0 102 102
r 0.202095 7 2 cbr 100 ------- 1 1.0 5.0 82 82
+ 0.202095 2 6 cbr 100 ------- 1 1.0 5.0 82 82
- 0.202095 2 6 cbr 100 ------- 1 1.0 5.0 82 82
+ 0.203 1 7 cbr 100 ------- 1 1.0 5.0 93 93
- 0.203 1 7 cbr 100 ------- 1 1.0 5.0 93 93
h 0.203 1 7 cbr 100 ------- 1 1.0 5.0 103 103
r 0.203095 7 2 cbr 100 ------- 1 1.0 5.0 83 83
+ 0.203095 2 6 cbr 100 ------- 1 1.0 5.0 83 83
- 0.203095 2 6 cbr 100 ------- 1 1.0 5.0 83 83
+ 0.204 1 7 cbr 100 ------- 1 1.0 5.0 94 94
- 0.204 1 7 cbr 100 ------- 1 1.0 5.0 94 94
h 0.204 1 7 cbr 100 ------- 1 1.0 5.0 104 104
r 0.204095 7 2 cbr 100 ------- 1 1.0 5.0 84 84
+ 0.204095 2 6 cbr 100 ------- 1 1.0 5.0 84 84
- 0.204095 2 6 cbr 100 ------- 1 1.0 5.0 84 84
+ 0.205 1 7 cbr 100 ------- 1 1.0 5.0 95 95
- 0.205 1 7 cbr 100 ------- 1 1.0 5.0 95 95
h 0.205 1 7 cbr 100 ------- 1 1.0 5.0 105 105
r 0.205095 7 2 cbr 100 ------- 1 1.0 5.0 85 85
+ 0.205095 2 6 cbr 100 ------- 1 1.0 5.0 85 85
- 0.205095 2 6 cbr 100 ------- 1 1.0 5.0 85 85
+ 0.206 1 7 cbr 100 ------- 1 1.0 5.0 96 96
- 0.206 1 7 cbr 100 ------- 1 1.0 5.0 96 96
h 0.206 1 7 cbr 100 ------- 1 1.0 5.0 106 106
r 0.206095 7 2 cbr 100 ------- 1 1.0 5.0 86 86
+ 0.206095 2 6 cbr 100 ------- 1 1.0 5.0 86 86
- 0.206095 2 6 cbr 100 ------- 1 1.0 5.0 86 86
+ 0.207 1 7 cbr 100 ------- 1 1.0 5.0 97 97
- 0.207 1 7 cbr 100 ------- 1 1.0 5.0 97 97
h 0.207 1 7 cbr 100 ------- 1 1.0 5.0 107 107
r 0.207095 7 2 cbr 100 ------- 1 1.0 5.0 87 87
+ 0.207095 2 6 cbr 100 ------- 1 1.0 5.0 87 87
- 0.207095 2 6 cbr 100 ------- 1 1.0 5.0 87 87
+ 0.208 1 7 cbr 100 ------- 1 1.0 5.0 98 98
- 0.208 1 7 cbr 100 ------- 1 1.0 5.0 98 98
h 0.208 1 7 cbr 100 ------- 1 1.0 5.0 108 108
r 0.208095 7 2 cbr 100 ------- 1 1.0 5.0 88 88
+ 0.208095 2 6 cbr 100 ------- 1 1.0 5.0 88 88
- 0.208095 2 6 cbr 100 ------- 1 1.0 5.0 88 88
+ 0.209 1 7 cbr 100 ------- 1 1.0 5.0 99 99
- 0.209 1 7 cbr 100 ------- 1 1.0 5.0 99 99
h 0.209 1 7 cbr 100 ------- 1 1.0 5.0 109 109
r 0.209095 7 2 cbr 100 ------- 1 1.0 5.0 89 89
+ 0.209095 2 6 cbr 100 ------- 1 1.0 5.0 89 89
- 0.209095 2 6 cbr 100 ------- 1 1.0 5.0 89 89
+ 0.21 1 7 cbr 100 ------- 1 1.0 5.0 100 100
- 0.21 1 7 cbr 100 ------- 1 1.0 5.0 100 100
h 0.21 1 7 cbr 100 ------- 1 1.0 5.0 110 110
r 0.210095 7 2 cbr 100 ------- 1 1.0 5.0 90 90
d 0.210095 2 6 cbr 100 ------- 1 1.0 5.0 90 90
+ 0.211 1 7 cbr 100 ------- 1 1.0 5.0 101 101
- 0.211 1 7 cbr 100 ------- 1 1.0 5.0 101 101
h 0.211 1 7 cbr 100 ------- 1 1.0 5.0 111 111
r 0.211095 7 2 cbr 100 ------- 1 1.0 5.0 91 91
d 0.211095 2 6 cbr 100 ------- 1 1.0 5.0 91 91
+ 0.212 1 7 cbr 100 ------- 1 1.0 5.0 102 102
- 0.212 1 7 cbr 100 ------- 1 1.0 5.0 102 102
h 0.212 1 7 cbr 100 ------- 1 1.0 5.0 112 112
r 0.212095 7 2 cbr 100 ------- 1 1.0 5.0 92 92
+ 0.212095 2 6 cbr 100 ------- 1 1.0 5.0 92 92
- 0.212095 2 6 cbr 100 ------- 1 1.0 5.0 92 92
+ 0.213 1 7 cbr 100 ------- 1 1.0 5.0 103 103
- 0.213 1 7 cbr 100 ------- 1 1.0 5.0 103 103
h 0.213 1 7 cbr 100 ------- 1 1.0 5.0 113 113
r 0.213095 7 2 cbr 100 ------- 1 1.0 5.0 93 93
+ 0.213095 2 6 cbr 100 ------- 1 1.0 5.0 93 93
- 0.213095 2 6 cbr 100 ------- 1 1.0 5.0 93 93
+ 0.214 1 7 cbr 100 ------- 1 1.0 5.0 104 104
- 0.214 1 7 cbr 100 ------- 1 1.0 5.0 104 104
h 0.214 1 7 cbr 100 ------- 1 1.0 5.0 114 114
r 0.214095 7 2 cbr 100 ------- 1 1.0 5.0 94 94
+ 0.214095 2 6 cbr 100 ------- 1 1.0 5.0 94 94
- 0.214095 2 6 cbr 100 ------- 1 1.0 5.0 94 94
+ 0.215 1 7 cbr 100 ------- 1 1.0 5.0 105 105
- 0.215 1 7 cbr 100 ------- 1 1.0 5.0 105 105
h 0.215 1 7 cbr 100 ------- 1 1.0 5.0 115 115
r 0.215095 7 2 cbr 100 ------- 1 1.0 5.0 95 95
d 0.215095 2 6 cbr 100 ------- 1 1.0 5.0 95 95
+ 0.216 1 7 cbr 100 ------- 1 1.0 5.0 106 106
- 0.216 1 7 cbr 100 ------- 1 1.0 5.0 106 106
h 0.216 1 7 cbr 100 ------- 1 1.0 5.0 116 116
r 0.216095 7 2 cbr 100 ------- 1 1.0 5.0 96 96
+ 0.216095 2 6 cbr 100 ------- 1 1.0 5.0 96 96
- 0.216095 2 6 cbr 100 ------- 1 1.0 5.0 96 96
+ 0.217 1 7 cbr 100 ------- 1 1.0 5.0 107 107
- 0.217 1 7 cbr 100 ------- 1 1.0 5.0 107 107
h 0.217 1 7 cbr 100 ------- 1 1.0 5.0 117 117
r 0.217095 7 2 cbr 100 ------- 1 1.0 5.0 97 97
+ 0.217095 2 6 cbr 100 ------- 1 1.0 5.0 97 97
- 0.217095 2 6 cbr 100 ------- 1 1.0 5.0 97 97
+ 0.218 1 7 cbr 100 ------- 1 1.0 5.0 108 108
- 0.218 1 7 cbr 100 ------- 1 1.0 5.0 108 108
h 0.218 1 7 cbr 100 ------- 1 1.0 5.0 118 118
r 0.218095 7 2 cbr 100 ------- 1 1.0 5.0 98 98
d 0.218095 2 6 cbr 100 ------- 1 1.0 5.0 98 98
+ 0.219 1 7 cbr 100 ------- 1 1.0 5.0 109 109
- 0.219 1 7 cbr 100 ------- 1 1.0 5.0 109 109
h 0.219 1 7 cbr 100 ------- 1 1.0 5.0 119 119
r 0.219095 7 2 cbr 100 ------- 1 1.0 5.0 99 99
+ 0.219095 2 6 cbr 100 ------- 1 1.0 5.0 99 99
- 0.219095 2 6 cbr 100 ------- 1 1.0 5.0 99 99
+ 0.22 1 7 cbr 100 ------- 1 1.0 5.0 110 110
- 0.22 1 7 cbr 100 ------- 1 1.0 5.0 110 110
h 0.22 1 7 cbr 100 ------- 1 1.0 5.0 120 120
r 0.220095 7 2 cbr 100 ------- 1 1.0 5.0 100 100
+ 0.220095 2 6 cbr 100 ------- 1 1.0 5.0 100 100
- 0.220095 2 6 cbr 100 ------- 1 1.0 5.0 100 100
+ 0.221 1 7 cbr 100 ------- 1 1.0 5.0 111 111
- 0.221 1 7 cbr 100 ------- 1 1.0 5.0 111 111
h 0.221 1 7 cbr 100 ------- 1 1.0 5.0 121 121
r 0.221095 7 2 cbr 100 ------- 1 1.0 5.0 101 101
+ 0.221095 2 6 cbr 100 ------- 1 1.0 5.0 101 101
- 0.221095 2 6 cbr 100 ------- 1 1.0 5.0 101 101
r 0.221175 2 6 cbr 100 ------- 1 1.0 5.0 1 1
h 0.221175 6 8 cbr 100 ------- 1 1.0 5.0 1 1
+ 0.222 1 7 cbr 100 ------- 1 1.0 5.0 112 112
- 0.222 1 7 cbr 100 ------- 1 1.0 5.0 112 112
h 0.222 1 7 cbr 100 ------- 1 1.0 5.0 122 122
r 0.222095 7 2 cbr 100 ------- 1 1.0 5.0 102 102
+ 0.222095 2 6 cbr 100 ------- 1 1.0 5.0 102 102
- 0.222095 2 6 cbr 100 ------- 1 1.0 5.0 102 102
+ 0.223 1 7 cbr 100 ------- 1 1.0 5.0 113 113
- 0.223 1 7 cbr 100 ------- 1 1.0 5.0 113 113
h 0.223 1 7 cbr 100 ------- 1 1.0 5.0 123 123
r 0.223095 7 2 cbr 100 ------- 1 1.0 5.0 103 103
+ 0.223095 2 6 cbr 100 ------- 1 1.0 5.0 103 103
- 0.223095 2 6 cbr 100 ------- 1 1.0 5.0 103 103
+ 0.224 1 7 cbr 100 ------- 1 1.0 5.0 114 114
- 0.224 1 7 cbr 100 ------- 1 1.0 5.0 114 114
h 0.224 1 7 cbr 100 ------- 1 1.0 5.0 124 124
r 0.224095 7 2 cbr 100 ------- 1 1.0 5.0 104 104
d 0.224095 2 6 cbr 100 ------- 1 1.0 5.0 104 104
r 0.224175 2 6 cbr 100 ------- 1 1.0 5.0 4 4
h 0.224175 6 8 cbr 100 ------- 1 1.0 5.0 4 4
+ 0.225 1 7 cbr 100 ------- 1 1.0 5.0 115 115
- 0.225 1 7 cbr 100 ------- 1 1.0 5.0 115 115
h 0.225 1 7 cbr 100 ------- 1 1.0 5.0 125 125