h 0.1 0 5 tcp 40 ------- 0 0.0 2.0 0 0
+ 0.11 0 5 tcp 40 ------- 0 0.0 2.0 0 0
- 0.11 0 5 tcp 40 ------- 0 0.0 2.0 0 0
r 0.120055 5 2 tcp 40 ------- 0 0.0 2.0 0 0
h 0.120055 2 5 ack 40 ------- 0 2.0 0.0 0 1
+ 0.130055 2 5 ack 40 ------- 0 2.0 0.0 0 1
- 0.130055 2 5 ack 40 ------- 0 2.0 0.0 0 1
r 0.14011 5 0 ack 40 ------- 0 2.0 0.0 0 1
h 0.14011 0 5 tcp 1040 ------- 0 0.0 2.0 1 2
h 0.14011 0 5 tcp 1040 ------- 0 0.0 2.0 2 3
+ 0.15011 0 5 tcp 1040 ------- 0 0.0 2.0 1 2
- 0.15011 0 5 tcp 1040 ------- 0 0.0 2.0 1 2
+ 0.15011 0 5 tcp 1040 ------- 0 0.0 2.0 2 3
- 0.150963 0 5 tcp 1040 ------- 0 0.0 2.0 2 3
r 0.160958 5 2 tcp 1040 ------- 0 0.0 2.0 1 2
h 0.160958 2 5 ack 40 ------- 0 2.0 0.0 1 4
r 0.16181 5 2 tcp 1040 ------- 0 0.0 2.0 2 3
h 0.16181 2 5 ack 40 ------- 0 2.0 0.0 2 5
+ 0.170958 2 5 ack 40 ------- 0 2.0 0.0 1 4
- 0.170958 2 5 ack 40 ------- 0 2.0 0.0 1 4
+ 0.17181 2 5 ack 40 ------- 0 2.0 0.0 2 5
- 0.17181 2 5 ack 40 ------- 0 2.0 0.0 2 5
r 0.181013 5 0 ack 40 ------- 0 2.0 0.0 1 4
h 0.181013 0 5 tcp 1040 ------- 0 0.0 2.0 3 6
h 0.181013 0 5 tcp 1040 ------- 0 0.0 2.0 4 7
r 0.181866 5 0 ack 40 ------- 0 2.0 0.0 2 5
h 0.181866 0 5 tcp 1040 ------- 0 0.0 2.0 5 8
h 0.181866 0 5 tcp 1040 ------- 0 0.0 2.0 6 9
+ 0.191013 0 5 tcp 1040 ------- 0 0.0 2.0 3 6
- 0.191013 0 5 tcp 1040 ------- 0 0.0 2.0 3 6
+ 0.191013 0 5 tcp 1040 ------- 0 0.0 2.0 4 7
+ 0.191866 0 5 tcp 1040 ------- 0 0.0 2.0 5 8
+ 0.191866 0 5 tcp 1040 ------- 0 0.0 2.0 6 9
- 0.191866 0 5 tcp 1040 ------- 0 0.0 2.0 4 7
- 0.192718 0 5 tcp 1040 ------- 0 0.0 2.0 5 8
- 0.193571 0 5 tcp 1040 ------- 0 0.0 2.0 6 9
h 0.2 3 5 tcp 40 ------- 0 3.0 4.0 0 10
r 0.20186 5 2 tcp 1040 ------- 0 0.0 2.0 3 6
h 0.20186 2 5 ack 40 ------- 0 2.0 0.0 3 11
r 0.202713 5 2 tcp 1040 ------- 0 0.0 2.0 4 7
h 0.202713 2 5 ack 40 ------- 0 2.0 0.0 4 12
r 0.203566 5 2 tcp 1040 ------- 0 0.0 2.0 5 8
h 0.203566 2 5 ack 40 ------- 0 2.0 0.0 5 13
r 0.204418 5 2 tcp 1040 ------- 0 0.0 2.0 6 9
h 0.204418 2 5 ack 40 ------- 0 2.0 0.0 6 14
+ 0.21 3 5 tcp 40 ------- 0 3.0 4.0 0 10
- 0.21 3 5 tcp 40 ------- 0 3.0 4.0 0 10
+ 0.21186 2 5 ack 40 ------- 0 2.0 0.0 3 11
- 0.21186 2 5 ack 40 ------- 0 2.0 0.0 3 11
+ 0.212713 2 5 ack 40 ------- 0 2.0 0.0 4 12
- 0.212713 2 5 ack 40 ------- 0 2.0 0.0 4 12
+ 0.213566 2 5 ack 40 ------- 0 2.0 0.0 5 13
- 0.213566 2 5 ack 40 ------- 0 2.0 0.0 5 13
+ 0.214418 2 5 ack 40 ------- 0 2.0 0.0 6 14
- 0.214418 2 5 ack 40 ------- 0 2.0 0.0 6 14
r 0.220055 5 4 tcp 40 ------- 0 3.0 4.0 0 10
h 0.220055 4 5 ack 40 ------- 0 4.0 3.0 0 15
r 0.221915 5 0 ack 40 ------- 0 2.0 0.0 3 11
h 0.221915 0 5 tcp 1040 ------- 0 0.0 2.0 7 16
h 0.221915 0 5 tcp 1040 ------- 0 0.0 2.0 8 17
r 0.222768 5 0 ack 40 ------- 0 2.0 0.0 4 12
h 0.222768 0 5 tcp 1040 ------- 0 0.0 2.0 9 18
h 0.222768 0 5 tcp 1040 ------- 0 0.0 2.0 10 19
r 0.223621 5 0 ack 40 ------- 0 2.0 0.0 5 13
h 0.223621 0 5 tcp 1040 ------- 0 0.0 2.0 11 20
h 0.223621 0 5 tcp 1040 ------- 0 0.0 2.0 12 21
r 0.224474 5 0 ack 40 ------- 0 2.0 0.0 6 14
h 0.224474 0 5 tcp 1040 ------- 0 0.0 2.0 13 22
h 0.224474 0 5 tcp 1040 ------- 0 0.0 2.0 14 23
+ 0.230055 4 5 ack 40 ------- 0 4.0 3.0 0 15
- 0.230055 4 5 ack 40 ------- 0 4.0 3.0 0 15
+ 0.231915 0 5 tcp 1040 ------- 0 0.0 2.0 7 16
- 0.231915 0 5 tcp 1040 ------- 0 0.0 2.0 7 16
+ 0.231915 0 5 tcp 1040 ------- 0 0.0 2.0 8 17
+ 0.232768 0 5 tcp 1040 ------- 0 0.0 2.0 9 18
+ 0.232768 0 5 tcp 1040 ------- 0 0.0 2.0 10 19
- 0.232768 0 5 tcp 1040 ------- 0 0.0 2.0 8 17
+ 0.233621 0 5 tcp 1040 ------- 0 0.0 2.0 11 20
+ 0.233621 0 5 tcp 1040 ------- 0 0.0 2.0 12 21
- 0.233621 0 5 tcp 1040 ------- 0 0.0 2.0 9 18
+ 0.234474 0 5 tcp 1040 ------- 0 0.0 2.0 13 22
+ 0.234474 0 5 tcp 1040 ------- 0 0.0 2.0 14 23
- 0.234474 0 5 tcp 1040 ------- 0 0.0 2.0 10 19
- 0.235326 0 5 tcp 1040 ------- 0 0.0 2.0 11 20
- 0.236179 0 5 tcp 1040 ------- 0 0.0 2.0 12 21
- 0.237032 0 5 tcp 1040 ------- 0 0.0 2.0 13 22
- 0.237885 0 5 tcp 1040 ------- 0 0.0 2.0 14 23
r 0.24011 5 3 ack 40 ------- 0 4.0 3.0 0 15
h 0.24011 3 5 tcp 1040 ------- 0 3.0 4.0 1 24
h 0.24011 3 5 tcp 1040 ------- 0 3.0 4.0 2 25
r 0.242762 5 2 tcp 1040 ------- 0 0.0 2.0 7 16
h 0.242762 2 5 ack 40 ------- 0 2.0 0.0 7 26
r 0.243615 5 2 tcp 1040 ------- 0 0.0 2.0 8 17
h 0.243615 2 5 ack 40 ------- 0 2.0 0.0 8 27
r 0.244468 5 2 tcp 1040 ------- 0 0.0 2.0 9 18
h 0.244468 2 5 ack 40 ------- 0 2.0 0.0 9 28
r 0.245321 5 2 tcp 1040 ------- 0 0.0 2.0 10 19
h 0.245321 2 5 ack 40 ------- 0 2.0 0.0 10 29
r 0.246174 5 2 tcp 1040 ------- 0 0.0 2.0 11 20
h 0.246174 2 5 ack 40 ------- 0 2.0 0.0 11 30
r 0.247026 5 2 tcp 1040 ------- 0 0.0 2.0 12 21
h 0.247026 2 5 ack 40 ------- 0 2.0 0.0 12 31
r 0.247879 5 2 tcp 1040 ------- 0 0.0 2.0 13 22
h 0.247879 2 5 ack 40 ------- 0 2.0 0.0 13 32
r 0.248732 5 2 tcp 1040 ------- 0 0.0 2.0 14 23
h 0.248732 2 5 ack 40 ------- 0 2.0 0.0 14 33
+ 0.25011 3 5 tcp 1040 ------- 0 3.0 4.0 1 24
- 0.25011 3 5 tcp 1040 ------- 0 3.0 4.0 1 24
+ 0.25011 3 5 tcp 1040 ------- 0 3.0 4.0 2 25
- 0.250963 3 5 tcp 1040 ------- 0 3.0 4.0 2 25
+ 0.252762 2 5 ack 40 ------- 0 2.0 0.0 7 26
- 0.252762 2 5 ack 40 ------- 0 2.0 0.0 7 26
+ 0.253615 2 5 ack 40 ------- 0 2.0 0.0 8 27
- 0.253615 2 5 ack 40 ------- 0 2.0 0.0 8 27
+ 0.254468 2 5 ack 40 ------- 0 2.0 0.0 9 28
- 0.254468 2 5 ack 40 ------- 0 2.0 0.0 9 28
+ 0.255321 2 5 ack 40 ------- 0 2.0 0.0 10 29
- 0.255321 2 5 ack 40 ------- 0 2.0 0.0 10 29
+ 0.256174 2 5 ack 40 ------- 0 2.0 0.0 11 30
- 0.256174 2 5 ack 40 ------- 0 2.0 0.0 11 30
+ 0.257026 2 5 ack 40 ------- 0 2.0 0.0 12 31
- 0.257026 2 5 ack 40 ------- 0 2.0 0.0 12 31
+ 0.257879 2 5 ack 40 ------- 0 2.0 0.0 13 32
- 0.257879 2 5 ack 40 ------- 0 2.0 0.0 13 32
+ 0.258732 2 5 ack 40 ------- 0 2.0 0.0 14 33
- 0.258732 2 5 ack 40 ------- 0 2.0 0.0 14 33
r 0.260958 5 4 tcp 1040 ------- 0 3.0 4.0 1 24
h 0.260958 4 5 ack 40 ------- 0 4.0 3.0 1 34
r 0.26181 5 4 tcp 1040 ------- 0 3.0 4.0 2 25
h 0.26181 4 5 ack 40 ------- 0 4.0 3.0 2 35
r 0.262818 5 0 ack 40 ------- 0 2.0 0.0 7 26
h 0.262818 0 5 tcp 1040 ------- 0 0.0 2.0 15 36
h 0.262818 0 5 tcp 1040 ------- 0 0.0 2.0 16 37
r 0.26367 5 0 ack 40 ------- 0 2.0 0.0 8 27
h 0.26367 0 5 tcp 1040 ------- 0 0.0 2.0 17 38
h 0.26367 0 5 tcp 1040 ------- 0 0.0 2.0 18 39
r 0.264523 5 0 ack 40 ------- 0 2.0 0.0 9 28
h 0.264523 0 5 tcp 1040 ------- 0 0.0 2.0 19 40
h 0.264523 0 5 tcp 1040 ------- 0 0.0 2.0 20 41
r 0.265376 5 0 ack 40 ------- 0 2.0 0.0 10 29
h 0.265376 0 5 tcp 1040 ------- 0 0.0 2.0 21 42
h 0.265376 0 5 tcp 1040 ------- 0 0.0 2.0 22 43
r 0.266229 5 0 ack 40 ------- 0 2.0 0.0 11 30
h 0.266229 0 5 tcp 1040 ------- 0 0.0 2.0 23 44
h 0.266229 0 5 tcp 1040 ------- 0 0.0 2.0 24 45
r 0.267082 5 0 ack 40 ------- 0 2.0 0.0 12 31
h 0.267082 0 5 tcp 1040 ------- 0 0.0 2.0 25 46
h 0.267082 0 5 tcp 1040 ------- 0 0.0 2.0 26 47
r 0.267934 5 0 ack 40 ------- 0 2.0 0.0 13 32
h 0.267934 0 5 tcp 1040 ------- 0 0.0 2.0 27 48
h 0.267934 0 5 tcp 1040 ------- 0 0.0 2.0 28 49
r 0.268787 5 0 ack 40 ------- 0 2.0 0.0 14 33
h 0.268787 0 5 tcp 1040 ------- 0 0.0 2.0 29 50
h 0.268787 0 5 tcp 1040 ------- 0 0.0 2.0 30 51
+ 0.270958 4 5 ack 40 ------- 0 4.0 3.0 1 34
- 0.270958 4 5 ack 40 ------- 0 4.0 3.0 1 34
+ 0.27181 4 5 ack 40 ------- 0 4.0 3.0 2 35
- 0.27181 4 5 ack 40 ------- 0 4.0 3.0 2 35
+ 0.272818 0 5 tcp 1040 ------- 0 0.0 2.0 15 36
- 0.272818 0 5 tcp 1040 ------- 0 0.0 2.0 15 36
+ 0.272818 0 5 tcp 1040 ------- 0 0.0 2.0 16 37
+ 0.27367 0 5 tcp 1040 ------- 0 0.0 2.0 17 38
+ 0.27367 0 5 tcp 1040 ------- 0 0.0 2.0 18 39
- 0.27367 0 5 tcp 1040 ------- 0 0.0 2.0 16 37
+ 0.274523 0 5 tcp 1040 ------- 0 0.0 2.0 19 40
+ 0.274523 0 5 tcp 1040 ------- 0 0.0 2.0 20 41
- 0.274523 0 5 tcp 1040 ------- 0 0.0 2.0 17 38
+ 0.275376 0 5 tcp 1040 ------- 0 0.0 2.0 21 42
+ 0.275376 0 5 tcp 1040 ------- 0 0.0 2.0 22 43
- 0.275376 0 5 tcp 1040 ------- 0 0.0 2.0 18 39
+ 0.276229 0 5 tcp 1040 ------- 0 0.0 2.0 23 44
+ 0.276229 0 5 tcp 1040 ------- 0 0.0 2.0 24 45
- 0.276229 0 5 tcp 1040 ------- 0 0.0 2.0 19 40
+ 0.277082 0 5 tcp 1040 ------- 0 0.0 2.0 25 46
+ 0.277082 0 5 tcp 1040 ------- 0 0.0 2.0 26 47
- 0.277082 0 5 tcp 1040 ------- 0 0.0 2.0 20 41
+ 0.277934 0 5 tcp 1040 ------- 0 0.0 2.0 27 48
+ 0.277934 0 5 tcp 1040 ------- 0 0.0 2.0 28 49
- 0.277934 0 5 tcp 1040 ------- 0 0.0 2.0 21 42
+ 0.278787 0 5 tcp 1040 ------- 0 0.0 2.0 29 50
+ 0.278787 0 5 tcp 1040 ------- 0 0.0 2.0 30 51
- 0.278787 0 5 tcp 1040 ------- 0 0.0 2.0 22 43
- 0.27964 0 5 tcp 1040 ------- 0 0.0 2.0 23 44
- 0.280493 0 5 tcp 1040 ------- 0 0.0 2.0 24 45
r 0.281013 5 3 ack 40 ------- 0 4.0 3.0 1 34
h 0.281013 3 5 tcp 1040 ------- 0 3.0 4.0 3 52
h 0.281013 3 5 tcp 1040 ------- 0 3.0 4.0 4 53
- 0.281346 0 5 tcp 1040 ------- 0 0.0 2.0 25 46
r 0.281866 5 3 ack 40 ------- 0 4.0 3.0 2 35
h 0.281866 3 5 tcp 1040 ------- 0 3.0 4.0 5 54
h 0.281866 3 5 tcp 1040 ------- 0 3.0 4.0 6 55
- 0.282198 0 5 tcp 1040 ------- 0 0.0 2.0 26 47
- 0.283051 0 5 tcp 1040 ------- 0 0.0 2.0 27 48
r 0.283665 5 2 tcp 1040 ------- 0 0.0 2.0 15 36
h 0.283665 2 5 ack 40 ------- 0 2.0 0.0 15 56
- 0.283904 0 5 tcp 1040 ------- 0 0.0 2.0 28 49
r 0.284518 5 2 tcp 1040 ------- 0 0.0 2.0 16 37
h 0.284518 2 5 ack 40 ------- 0 2.0 0.0 16 57
- 0.284757 0 5 tcp 1040 ------- 0 0.0 2.0 29 50
r 0.28537 5 2 tcp 1040 ------- 0 0.0 2.0 17 38
h 0.28537 2 5 ack 40 ------- 0 2.0 0.0 17 58
- 0.28561 0 5 tcp 1040 ------- 0 0.0 2.0 30 51
r 0.286223 5 2 tcp 1040 ------- 0 0.0 2.0 18 39
h 0.286223 2 5 ack 40 ------- 0 2.0 0.0 18 59
r 0.287076 5 2 tcp 1040 ------- 0 0.0 2.0 19 40
h 0.287076 2 5 ack 40 ------- 0 2.0 0.0 19 60
r 0.287929 5 2 tcp 1040 ------- 0 0.0 2.0 20 41
h 0.287929 2 5 ack 40 ------- 0 2.0 0.0 20 61
r 0.288782 5 2 tcp 1040 ------- 0 0.0 2.0 21 42
h 0.288782 2 5 ack 40 ------- 0 2.0 0.0 21 62
r 0.289634 5 2 tcp 1040 ------- 0 0.0 2.0 22 43
h 0.289634 2 5 ack 40 ------- 0 2.0 0.0 22 63
r 0.290487 5 2 tcp 1040 ------- 0 0.0 2.0 23 44
h 0.290487 2 5 ack 40 ------- 0 2.0 0.0 23 64
+ 0.291013 3 5 tcp 1040 ------- 0 3.0 4.0 3 52
- 0.291013 3 5 tcp 1040 ------- 0 3.0 4.0 3 52
+ 0.291013 3 5 tcp 1040 ------- 0 3.0 4.0 4 53
r 0.29134 5 2 tcp 1040 ------- 0 0.0 2.0 24 45
h 0.29134 2 5 ack 40 ------- 0 2.0 0.0 24 65
+ 0.291866 3 5 tcp 1040 ------- 0 3.0 4.0 5 54
+ 0.291866 3 5 tcp 1040 ------- 0 3.0 4.0 6 55
- 0.291866 3 5 tcp 1040 ------- 0 3.0 4.0 4 53
r 0.292193 5 2 tcp 1040 ------- 0 0.0 2.0 25 46
h 0.292193 2 5 ack 40 ------- 0 2.0 0.0 25 66
- 0.292718 3 5 tcp 1040 ------- 0 3.0 4.0 5 54
r 0.293046 5 2 tcp 1040 ------- 0 0.0 2.0 26 47
h 0.293046 2 5 ack 40 ------- 0 2.0 0.0 26 67
- 0.293571 3 5 tcp 1040 ------- 0 3.0 4.0 6 55
+ 0.293665 2 5 ack 40 ------- 0 2.0 0.0 15 56
- 0.293665 2 5 ack 40 ------- 0 2.0 0.0 15 56
r 0.293898 5 2 tcp 1040 ------- 0 0.0 2.0 27 48
h 0.293898 2 5 ack 40 ------- 0 2.0 0.0 27 68
+ 0.294518 2 5 ack 40 ------- 0 2.0 0.0 16 57
- 0.294518 2 5 ack 40 ------- 0 2.0 0.0 16 57
r 0.294751 5 2 tcp 1040 ------- 0 0.0 2.0 28 49
h 0.294751 2 5 ack 40 ------- 0 2.0 0.0 28 69
+ 0.29537 2 5 ack 40 ------- 0 2.0 0.0 17 58
- 0.29537 2 5 ack 40 ------- 0 2.0 0.0 17 58
r 0.295604 5 2 tcp 1040 ------- 0 0.0 2.0 29 50
h 0.295604 2 5 ack 40 ------- 0 2.0 0.0 29 70
+ 0.296223 2 5 ack 40 ------- 0 2.0 0.0 18 59
- 0.296223 2 5 ack 40 ------- 0 2.0 0.0 18 59
r 0.296457 5 2 tcp 1040 ------- 0 0.0 2.0 30 51
h 0.296457 2 5 ack 40 ------- 0 2.0 0.0 30 71
+ 0.297076 2 5 ack 40 ------- 0 2.0 0.0 19 60
- 0.297076 2 5 ack 40 ------- 0 2.0 0.0 19 60
+ 0.297929 2 5 ack 40 ------- 0 2.0 0.0 20 61
- 0.297929 2 5 ack 40 ------- 0 2.0 0.0 20 61
+ 0.298782 2 5 ack 40 ------- 0 2.0 0.0 21 62
- 0.298782 2 5 ack 40 ------- 0 2.0 0.0 21 62
+ 0.299634 2 5 ack 40 ------- 0 2.0 0.0 22 63
- 0.299634 2 5 ack 40 ------- 0 2.0 0.0 22 63
+ 0.300487 2 5 ack 40 ------- 0 2.0 0.0 23 64
- 0.300487 2 5 ack 40 ------- 0 2.0 0.0 23 64
+ 0.30134 2 5 ack 40 ------- 0 2.0 0.0 24 65
- 0.30134 2 5 ack 40 ------- 0 2.0 0.0 24 65
r 0.30186 5 4 tcp 1040 ------- 0 3.0 4.0 3 52
h 0.30186 4 5 ack 40 ------- 0 4.0 3.0 3 72
+ 0.302193 2 5 ack 40 ------- 0 2.0 0.0 25 66
- 0.302193 2 5 ack 40 ------- 0 2.0 0.0 25 66
r 0.302713 5 4 tcp 1040 ------- 0 3.0 4.0 4 53
h 0.302713 4 5 ack 40 ------- 0 4.0 3.0 4 73
+ 0.303046 2 5 ack 40 ------- 0 2.0 0.0 26 67
- 0.303046 2 5 ack 40 ------- 0 2.0 0.0 26 67
r 0.303566 5 4 tcp 1040 ------- 0 3.0 4.0 5 54
h 0.303566 4 5 ack 40 ------- 0 4.0 3.0 5 74
+ 0.303898 2 5 ack 40 ------- 0 2.0 0.0 27 68
- 0.303898 2 5 ack 40 ------- 0 2.0 0.0 27 68
r 0.304418 5 4 tcp 1040 ------- 0 3.0 4.0 6 55
h 0.304418 4 5 ack 40 ------- 0 4.0 3.0 6 75
r 0.304483 5 0 ack 40 ------- 0 2.0 0.0 15 56
h 0.304483 0 5 tcp 1040 ------- 0 0.0 2.0 31 76
h 0.304483 0 5 tcp 1040 ------- 0 0.0 2.0 32 77
r 0.304573 5 0 ack 40 ------- 0 2.0 0.0 16 57
h 0.304573 0 5 tcp 1040 ------- 0 0.0 2.0 33 78
h 0.304573 0 5 tcp 1040 ------- 0 0.0 2.0 34 79
+ 0.304751 2 5 ack 40 ------- 0 2.0 0.0 28 69
- 0.304751 2 5 ack 40 ------- 0 2.0 0.0 28 69
r 0.305426 5 0 ack 40 ------- 0 2.0 0.0 17 58
h 0.305426 0 5 tcp 1040 ------- 0 0.0 2.0 35 80
h 0.305426 0 5 tcp 1040 ------- 0 0.0 2.0 36 81
+ 0.305604 2 5 ack 40 ------- 0 2.0 0.0 29 70
- 0.305604 2 5 ack 40 ------- 0 2.0 0.0 29 70
r 0.306278 5 0 ack 40 ------- 0 2.0 0.0 18 59
h 0.306278 0 5 tcp 1040 ------- 0 0.0 2.0 37 82
h 0.306278 0 5 tcp 1040 ------- 0 0.0 2.0 38 83
+ 0.306457 2 5 ack 40 ------- 0 2.0 0.0 30 71
- 0.306457 2 5 ack 40 ------- 0 2.0 0.0 30 71
r 0.307131 5 0 ack 40 ------- 0 2.0 0.0 19 60
h 0.307131 0 5 tcp 1040 ------- 0 0.0 2.0 39 84
r 0.307984 5 0 ack 40 ------- 0 2.0 0.0 20 61
h 0.307984 0 5 tcp 1040 ------- 0 0.0 2.0 40 85
r 0.308837 5 0 ack 40 ------- 0 2.0 0.0 21 62
h 0.308837 0 5 tcp 1040 ------- 0 0.0 2.0 41 86
r 0.30969 5 0 ack 40 ------- 0 2.0 0.0 22 63
h 0.30969 0 5 tcp 1040 ------- 0 0.0 2.0 42 87
r 0.310542 5 0 ack 40 ------- 0 2.0 0.0 23 64
h 0.310542 0 5 tcp 1040 ------- 0 0.0 2.0 43 88
r 0.311395 5 0 ack 40 ------- 0 2.0 0.0 24 65
h 0.311395 0 5 tcp 1040 ------- 0 0.0 2.0 44 89
+ 0.31186 4 5 ack 40 ------- 0 4.0 3.0 3 72
- 0.31186 4 5 ack 40 ------- 0 4.0 3.0 3 72
r 0.312248 5 0 ack 40 ------- 0 2.0 0.0 25 66
h 0.312248 0 5 tcp 1040 ------- 0 0.0 2.0 45 90
+ 0.312713 4 5 ack 40 ------- 0 4.0 3.0 4 73
- 0.312713 4 5 ack 40 ------- 0 4.0 3.0 4 73
r 0.313101 5 0 ack 40 ------- 0 2.0 0.0 26 67
h 0.313101 0 5 tcp 1040 ------- 0 0.0 2.0 46 91
+ 0.313566 4 5 ack 40 ------- 0 4.0 3.0 5 74
- 0.313566 4 5 ack 40 ------- 0 4.0 3.0 5 74
r 0.313954 5 0 ack 40 ------- 0 2.0 0.0 27 68
h 0.313954 0 5 tcp 1040 ------- 0 0.0 2.0 47 92
+ 0.314418 4 5 ack 40 ------- 0 4.0 3.0 6 75
- 0.314418 4 5 ack 40 ------- 0 4.0 3.0 6 75
+ 0.314483 0 5 tcp 1040 ------- 0 0.0 2.0 31 76
- 0.314483 0 5 tcp 1040 ------- 0 0.0 2.0 31 76
+ 0.314483 0 5 tcp 1040 ------- 0 0.0 2.0 32 77
+ 0.314573 0 5 tcp 1040 ------- 0 0.0 2.0 33 78
+ 0.314573 0 5 tcp 1040 ------- 0 0.0 2.0 34 79
r 0.314806 5 0 ack 40 ------- 0 2.0 0.0 28 69
h 0.314806 0 5 tcp 1040 ------- 0 0.0 2.0 48 93
- 0.315336 0 5 tcp 1040 ------- 0 0.0 2.0 32 77
+ 0.315426 0 5 tcp 1040 ------- 0 0.0 2.0 35 80
+ 0.315426 0 5 tcp 1040 ------- 0 0.0 2.0 36 81
r 0.315659 5 0 ack 40 ------- 0 2.0 0.0 29 70
h 0.315659 0 5 tcp 1040 ------- 0 0.0 2.0 49 94
- 0.316189 0 5 tcp 1040 ------- 0 0.0 2.0 33 78
+ 0.316278 0 5 tcp 1040 ------- 0 0.0 2.0 37 82
+ 0.316278 0 5 tcp 1040 ------- 0 0.0 2.0 38 83
r 0.316512 5 0 ack 40 ------- 0 2.0 0.0 30 71
h 0.316512 0 5 tcp 1040 ------- 0 0.0 2.0 50 95
- 0.317042 0 5 tcp 1040 ------- 0 0.0 2.0 34 79
+ 0.317131 0 5 tcp 1040 ------- 0 0.0 2.0 39 84
- 0.317894 0 5 tcp 1040 ------- 0 0.0 2.0 35 80
+ 0.317984 0 5 tcp 1040 ------- 0 0.0 2.0 40 85
- 0.318747 0 5 tcp 1040 ------- 0 0.0 2.0 36 81
+ 0.318837 0 5 tcp 1040 ------- 0 0.0 2.0 41 86
- 0.3196 0 5 tcp 1040 ------- 0 0.0 2.0 37 82
+ 0.31969 0 5 tcp 1040 ------- 0 0.0 2.0 42 87
- 0.320453 0 5 tcp 1040 ------- 0 0.0 2.0 38 83
+ 0.320542 0 5 tcp 1040 ------- 0 0.0 2.0 43 88
- 0.321306 0 5 tcp 1040 ------- 0 0.0 2.0 39 84
+ 0.321395 0 5 tcp 1040 ------- 0 0.0 2.0 44 89
r 0.321915 5 3 ack 40 ------- 0 4.0 3.0 3 72
h 0.321915 3 5 tcp 1040 ------- 0 3.0 4.0 7 96
h 0.321915 3 5 tcp 1040 ------- 0 3.0 4.0 8 97
- 0.322158 0 5 tcp 1040 ------- 0 0.0 2.0 40 85
+ 0.322248 0 5 tcp 1040 ------- 0 0.0 2.0 45 90
r 0.322768 5 3 ack 40 ------- 0 4.0 3.0 4 73
h 0.322768 3 5 tcp 1040 ------- 0 3.0 4.0 9 98
h 0.322768 3 5 tcp 1040 ------- 0 3.0 4.0 10 99
- 0.323011 0 5 tcp 1040 ------- 0 0.0 2.0 41 86
+ 0.323101 0 5 tcp 1040 ------- 0 0.0 2.0 46 91
r 0.323621 5 3 ack 40 ------- 0 4.0 3.0 5 74
h 0.323621 3 5 tcp 1040 ------- 0 3.0 4.0 11 100
h 0.323621 3 5 tcp 1040 ------- 0 3.0 4.0 12 101
- 0.323864 0 5 tcp 1040 ------- 0 0.0 2.0 42 87
+ 0.323954 0 5 tcp 1040 ------- 0 0.0 2.0 47 92
r 0.324474 5 3 ack 40 ------- 0 4.0 3.0 6 75
h 0.324474 3 5 tcp 1040 ------- 0 3.0 4.0 13 102
h 0.324474 3 5 tcp 1040 ------- 0 3.0 4.0 14 103
- 0.324717 0 5 tcp 1040 ------- 0 0.0 2.0 43 88
+ 0.324806 0 5 tcp 1040 ------- 0 0.0 2.0 48 93
r 0.32533 5 2 tcp 1040 ------- 0 0.0 2.0 31 76
h 0.32533 2 5 ack 40 ------- 0 2.0 0.0 31 104
- 0.32557 0 5 tcp 1040 ------- 0 0.0 2.0 44 89
+ 0.325659 0 5 tcp 1040 ------- 0 0.0 2.0 49 94
r 0.326183 5 2 tcp 1040 ------- 0 0.0 2.0 32 77
h 0.326183 2 5 ack 40 ------- 0 2.0 0.0 32 105
- 0.326422 0 5 tcp 1040 ------- 0 0.0 2.0 45 90
+ 0.326512 0 5 tcp 1040 ------- 0 0.0 2.0 50 95
r 0.327036 5 2 tcp 1040 ------- 0 0.0 2.0 33 78
h 0.327036 2 5 ack 40 ------- 0 2.0 0.0 33 106
- 0.327275 0 5 tcp 1040 ------- 0 0.0 2.0 46 91
r 0.327889 5 2 tcp 1040 ------- 0 0.0 2.0 34 79
h 0.327889 2 5 ack 40 ------- 0 2.0 0.0 34 107
- 0.328128 0 5 tcp 1040 ------- 0 0.0 2.0 47 92
r 0.328742 5 2 tcp 1040 ------- 0 0.0 2.0 35 80
h 0.328742 2 5 ack 40 ------- 0 2.0 0.0 35 108
- 0.328981 0 5 tcp 1040 ------- 0 0.0 2.0 48 93
r 0.329594 5 2 tcp 1040 ------- 0 0.0 2.0 36 81
h 0.329594 2 5 ack 40 ------- 0 2.0 0.0 36 109
- 0.329834 0 5 tcp 1040 ------- 0 0.0 2.0 49 94
r 0.330447 5 2 tcp 1040 ------- 0 0.0 2.0 37 82
h 0.330447 2 5 ack 40 ------- 0 2.0 0.0 37 110
- 0.330686 0 5 tcp 1040 ------- 0 0.0 2.0 50 95
r 0.3313 5 2 tcp 1040 ------- 0 0.0 2.0 38 83
h 0.3313 2 5 ack 40 ------- 0 2.0 0.0 38 111
+ 0.331915 3 5 tcp 1040 ------- 0 3.0 4.0 7 96
- 0.331915 3 5 tcp 1040 ------- 0 3.0 4.0 7 96
+ 0.331915 3 5 tcp 1040 ------- 0 3.0 4.0 8 97
r 0.332153 5 2 tcp 1040 ------- 0 0.0 2.0 39 84
h 0.332153 2 5 ack 40 ------- 0 2.0 0.0 39 112
+ 0.332768 3 5 tcp 1040 ------- 0 3.0 4.0 9 98
+ 0.332768 3 5 tcp 1040 ------- 0 3.0 4.0 10 99
- 0.332768 3 5 tcp 1040 ------- 0 3.0 4.0 8 97
r 0.333006 5 2 tcp 1040 ------- 0 0.0 2.0 40 85
h 0.333006 2 5 ack 40 ------- 0 2.0 0.0 40 113
+ 0.333621 3 5 tcp 1040 ------- 0 3.0 4.0 11 100
+ 0.333621 3 5 tcp 1040 ------- 0 3.0 4.0 12 101
- 0.333621 3 5 tcp 1040 ------- 0 3.0 4.0 9 98
r 0.333858 5 2 tcp 1040 ------- 0 0.0 2.0 41 86
h 0.333858 2 5 ack 40 ------- 0 2.0 0.0 41 114
+ 0.334474 3 5 tcp 1040 ------- 0 3.0 4.0 13 102
+ 0.334474 3 5 tcp 1040 ------- 0 3.0 4.0 14 103
- 0.334474 3 5 tcp 1040 ------- 0 3.0 4.0 10 99
r 0.334711 5 2 tcp 1040 ------- 0 0.0 2.0 42 87
h 0.334711 2 5 ack 40 ------- 0 2.0 0.0 42 115
- 0.335326 3 5 tcp 1040 ------- 0 3.0 4.0 11 100
+ 0.33533 2 5 ack 40 ------- 0 2.0 0.0 31 104
- 0.33533 2 5 ack 40 ------- 0 2.0 0.0 31 104
r 0.335564 5 2 tcp 1040 ------- 0 0.0 2.0 43 88
h 0.335564 2 5 ack 40 ------- 0 2.0 0.0 43 116
+ 0.336183 2 5 ack 40 ------- 0 2.0 0.0 32 105
- 0.3362 3 5 tcp 1040 ------- 0 3.0 4.0 12 101
r 0.336417 5 2 tcp 1040 ------- 0 0.0 2.0 44 89
h 0.336417 2 5 ack 40 ------- 0 2.0 0.0 44 117
+ 0.337036 2 5 ack 40 ------- 0 2.0 0.0 33 106
- 0.337125 3 5 tcp 1040 ------- 0 3.0 4.0 13 102
r 0.33727 5 2 tcp 1040 ------- 0 0.0 2.0 45 90
h 0.33727 2 5 ack 40 ------- 0 2.0 0.0 45 118
+ 0.337889 2 5 ack 40 ------- 0 2.0 0.0 34 107
- 0.337998 3 5 tcp 1040 ------- 0 3.0 4.0 14 103
r 0.338122 5 2 tcp 1040 ------- 0 0.0 2.0 46 91
h 0.338122 2 5 ack 40 ------- 0 2.0 0.0 46 119
+ 0.338742 2 5 ack 40 ------- 0 2.0 0.0 35 108
r 0.338975 5 2 tcp 1040 ------- 0 0.0 2.0 47 92
h 0.338975 2 5 ack 40 ------- 0 2.0 0.0 47 120
- 0.338988 2 5 ack 40 ------- 0 2.0 0.0 32 105
- 0.339049 2 5 ack 40 ------- 0 2.0 0.0 33 106
- 0.33911 2 5 ack 40 ------- 0 2.0 0.0 34 107
- 0.33917 2 5 ack 40 ------- 0 2.0 0.0 35 108
+ 0.339594 2 5 ack 40 ------- 0 2.0 0.0 36 109
- 0.339594 2 5 ack 40 ------- 0 2.0 0.0 36 109
r 0.339828 5 2 tcp 1040 ------- 0 0.0 2.0 48 93
h 0.339828 2 5 ack 40 ------- 0 2.0 0.0 48 121
+ 0.340447 2 5 ack 40 ------- 0 2.0 0.0 37 110
- 0.340447 2 5 ack 40 ------- 0 2.0 0.0 37 110
r 0.340681 5 2 tcp 1040 ------- 0 0.0 2.0 49 94
h 0.340681 2 5 ack 40 ------- 0 2.0 0.0 49 122
+ 0.3413 2 5 ack 40 ------- 0 2.0 0.0 38 111
- 0.3413 2 5 ack 40 ------- 0 2.0 0.0 38 111
r 0.341534 5 2 tcp 1040 ------- 0 0.0 2.0 50 95
h 0.341534 2 5 ack 40 ------- 0 2.0 0.0 50 123
+ 0.342153 2 5 ack 40 ------- 0 2.0 0.0 39 112
- 0.342153 2 5 ack 40 ------- 0 2.0 0.0 39 112
r 0.342762 5 4 tcp 1040 ------- 0 3.0 4.0 7 96
h 0.342762 4 5 ack 40 ------- 0 4.0 3.0 7 124
+ 0.343006 2 5 ack 40 ------- 0 2.0 0.0 40 113
- 0.343006 2 5 ack 40 ------- 0 2.0 0.0 40 113
r 0.343615 5 4 tcp 1040 ------- 0 3.0 4.0 8 97
h 0.343615 4 5 ack 40 ------- 0 4.0 3.0 8 125
+ 0.343858 2 5 ack 40 ------- 0 2.0 0.0 41 114
- 0.343858 2 5 ack 40 ------- 0 2.0 0.0 41 114
r 0.344468 5 4 tcp 1040 ------- 0 3.0 4.0 9 98
h 0.344468 4 5 ack 40 ------- 0 4.0 3.0 9 126
+ 0.344711 2 5 ack 40 ------- 0 2.0 0.0 42 115
- 0.344711 2 5 ack 40 ------- 0 2.0 0.0 42 115
r 0.345321 5 4 tcp 1040 ------- 0 3.0 4.0 10 99
h 0.345321 4 5 ack 40 ------- 0 4.0 3.0 10 127
+ 0.345564 2 5 ack 40 ------- 0 2.0 0.0 43 116
- 0.345564 2 5 ack 40 ------- 0 2.0 0.0 43 116
r 0.346194 5 4 tcp 1040 ------- 0 3.0 4.0 11 100
h 0.346194 4 5 ack 40 ------- 0 4.0 3.0 11 128
+ 0.346417 2 5 ack 40 ------- 0 2.0 0.0 44 117
- 0.346417 2 5 ack 40 ------- 0 2.0 0.0 44 117
r 0.347119 5 4 tcp 1040 ------- 0 3.0 4.0 12 101
h 0.347119 4 5 ack 40 ------- 0 4.0 3.0 12 129
+ 0.34727 2 5 ack 40 ------- 0 2.0 0.0 45 118
- 0.34727 2 5 ack 40 ------- 0 2.0 0.0 45 118
r 0.347993 5 4 tcp 1040 ------- 0 3.0 4.0 13 102
h 0.347993 4 5 ack 40 ------- 0 4.0 3.0 13 130
+ 0.348122 2 5 ack 40 ------- 0 2.0 0.0 46 119
- 0.348122 2 5 ack 40 ------- 0 2.0 0.0 46 119
r 0.348918 5 4 tcp 1040 ------- 0 3.0 4.0 14 103
h 0.348918 4 5 ack 40 ------- 0 4.0 3.0 14 131
+ 0.348975 2 5 ack 40 ------- 0 2.0 0.0 47 120
- 0.348975 2 5 ack 40 ------- 0 2.0 0.0 47 120
r 0.348982 5 0 ack 40 ------- 0 2.0 0.0 31 104
h 0.348982 0 5 tcp 1040 ------- 0 0.0 2.0 51 132
r 0.349043 5 0 ack 40 ------- 0 2.0 0.0 32 105
h 0.349043 0 5 tcp 1040 ------- 0 0.0 2.0 52 133
r 0.349104 5 0 ack 40 ------- 0 2.0 0.0 33 106
h 0.349104 0 5 tcp 1040 ------- 0 0.0 2.0 53 134
r 0.349165 5 0 ack 40 ------- 0 2.0 0.0 34 107
h 0.349165 0 5 tcp 1040 ------- 0 0.0 2.0 54 135
r 0.349226 5 0 ack 40 ------- 0 2.0 0.0 35 108
h 0.349226 0 5 tcp 1040 ------- 0 0.0 2.0 55 136
r 0.34965 5 0 ack 40 ------- 0 2.0 0.0 36 109
h 0.34965 0 5 tcp 1040 ------- 0 0.0 2.0 56 137
+ 0.349828 2 5 ack 40 ------- 0 2.0 0.0 48 121
- 0.349828 2 5 ack 40 ------- 0 2.0 0.0 48 121
r 0.350502 5 0 ack 40 ------- 0 2.0 0.0 37 110
h 0.350502 0 5 tcp 1040 ------- 0 0.0 2.0 57 138
+ 0.350681 2 5 ack 40 ------- 0 2.0 0.0 49 122
- 0.350681 2 5 ack 40 ------- 0 2.0 0.0 49 122
r 0.351355 5 0 ack 40 ------- 0 2.0 0.0 38 111
h 0.351355 0 5 tcp 1040 ------- 0 0.0 2.0 58 139
+ 0.351534 2 5 ack 40 ------- 0 2.0 0.0 50 123
- 0.351534 2 5 ack 40 ------- 0 2.0 0.0 50 123
r 0.352208 5 0 ack 40 ------- 0 2.0 0.0 39 112
h 0.352208 0 5 tcp 1040 ------- 0 0.0 2.0 59 140
+ 0.352762 4 5 ack 40 ------- 0 4.0 3.0 7 124
- 0.352762 4 5 ack 40 ------- 0 4.0 3.0 7 124
r 0.353061 5 0 ack 40 ------- 0 2.0 0.0 40 113
h 0.353061 0 5 tcp 1040 ------- 0 0.0 2.0 60 141
+ 0.353615 4 5 ack 40 ------- 0 4.0 3.0 8 125
- 0.353615 4 5 ack 40 ------- 0 4.0 3.0 8 125
r 0.353914 5 0 ack 40 ------- 0 2.0 0.0 41 114
h 0.353914 0 5 tcp 1040 ------- 0 0.0 2.0 61 142
+ 0.354468 4 5 ack 40 ------- 0 4.0 3.0 9 126
- 0.354468 4 5 ack 40 ------- 0 4.0 3.0 9 126
r 0.354766 5 0 ack 40 ------- 0 2.0 0.0 42 115
h 0.354766 0 5 tcp 1040 ------- 0 0.0 2.0 62 143
+ 0.355321 4 5 ack 40 ------- 0 4.0 3.0 10 127
- 0.355321 4 5 ack 40 ------- 0 4.0 3.0 10 127
r 0.355619 5 0 ack 40 ------- 0 2.0 0.0 43 116
h 0.355619 0 5 tcp 1040 ------- 0 0.0 2.0 63 144
+ 0.356194 4 5 ack 40 ------- 0 4.0 3.0 11 128
- 0.356194 4 5 ack 40 ------- 0 4.0 3.0 11 128
r 0.356472 5 0 ack 40 ------- 0 2.0 0.0 44 117
h 0.356472 0 5 tcp 1040 ------- 0 0.0 2.0 64 145
+ 0.357119 4 5 ack 40 ------- 0 4.0 3.0 12 129
- 0.357119 4 5 ack 40 ------- 0 4.0 3.0 12 129
r 0.357325 5 0 ack 40 ------- 0 2.0 0.0 45 118
h 0.357325 0 5 tcp 1040 ------- 0 0.0 2.0 65 146
+ 0.357993 4 5 ack 40 ------- 0 4.0 3.0 13 130
- 0.357993 4 5 ack 40 ------- 0 4.0 3.0 13 130
r 0.358178 5 0 ack 40 ------- 0 2.0 0.0 46 119
h 0.358178 0 5 tcp 1040 ------- 0 0.0 2.0 66 147
+ 0.358918 4 5 ack 40 ------- 0 4.0 3.0 14 131
- 0.358918 4 5 ack 40 ------- 0 4.0 3.0 14 131
+ 0.358982 0 5 tcp 1040 ------- 0 0.0 2.0 51 132
- 0.358982 0 5 tcp 1040 ------- 0 0.0 2.0 51 132
r 0.35903 5 0 ack 40 ------- 0 2.0 0.0 47 120
h 0.35903 0 5 tcp 1040 ------- 0 0.0 2.0 67 148
+ 0.359043 0 5 tcp 1040 ------- 0 0.0 2.0 52 133
+ 0.359104 0 5 tcp 1040 ------- 0 0.0 2.0 53 134
+ 0.359165 0 5 tcp 1040 ------- 0 0.0 2.0 54 135
+ 0.359226 0 5 tcp 1040 ------- 0 0.0 2.0 55 136
+ 0.35965 0 5 tcp 1040 ------- 0 0.0 2.0 56 137
- 0.359835 0 5 tcp 1040 ------- 0 0.0 2.0 52 133
r 0.359883 5 0 ack 40 ------- 0 2.0 0.0 48 121
h 0.359883 0 5 tcp 1040 ------- 0 0.0 2.0 68 149
+ 0.360502 0 5 tcp 1040 ------- 0 0.0 2.0 57 138
- 0.360688 0 5 tcp 1040 ------- 0 0.0 2.0 53 134
r 0.360736 5 0 ack 40 ------- 0 2.0 0.0 49 122
h 0.360736 0 5 tcp 1040 ------- 0 0.0 2.0 69 150
+ 0.361355 0 5 tcp 1040 ------- 0 0.0 2.0 58 139
- 0.361541 0 5 tcp 1040 ------- 0 0.0 2.0 54 135
r 0.361589 5 0 ack 40 ------- 0 2.0 0.0 50 123
h 0.361589 0 5 tcp 1040 ------- 0 0.0 2.0 70 151
+ 0.362208 0 5 tcp 1040 ------- 0 0.0 2.0 59 140
- 0.362394 0 5 tcp 1040 ------- 0 0.0 2.0 55 136
r 0.362818 5 3 ack 40 ------- 0 4.0 3.0 7 124
h 0.362818 3 5 tcp 1040 ------- 0 3.0 4.0 15 152
h 0.362818 3 5 tcp 1040 ------- 0 3.0 4.0 16 153
+ 0.363061 0 5 tcp 1040 ------- 0 0.0 2.0 60 141
- 0.363246 0 5 tcp 1040 ------- 0 0.0 2.0 56 137
r 0.36367 5 3 ack 40 ------- 0 4.0 3.0 8 125
h 0.36367 3 5 tcp 1040 ------- 0 3.0 4.0 17 154
h 0.36367 3 5 tcp 1040 ------- 0 3.0 4.0 18 155
+ 0.363914 0 5 tcp 1040 ------- 0 0.0 2.0 61 142
- 0.364099 0 5 tcp 1040 ------- 0 0.0 2.0 57 138
r 0.364523 5 3 ack 40 ------- 0 4.0 3.0 9 126
h 0.364523 3 5 tcp 1040 ------- 0 3.0 4.0 19 156
h 0.364523 3 5 tcp 1040 ------- 0 3.0 4.0 20 157
+ 0.364766 0 5 tcp 1040 ------- 0 0.0 2.0 62 143
- 0.364952 0 5 tcp 1040 ------- 0 0.0 2.0 58 139
r 0.365376 5 3 ack 40 ------- 0 4.0 3.0 10 127
h 0.365376 3 5 tcp 1040 ------- 0 3.0 4.0 21 158
h 0.365376 3 5 tcp 1040 ------- 0 3.0 4.0 22 159
+ 0.365619 0 5 tcp 1040 ------- 0 0.0 2.0 63 144
- 0.365805 0 5 tcp 1040 ------- 0 0.0 2.0 59 140
r 0.36625 5 3 ack 40 ------- 0 4.0 3.0 11 128
h 0.36625 3 5 tcp 1040 ------- 0 3.0 4.0 23 160
h 0.36625 3 5 tcp 1040 ------- 0 3.0 4.0 24 161
+ 0.366472 0 5 tcp 1040 ------- 0 0.0 2.0 64 145
- 0.366658 0 5 tcp 1040 ------- 0 0.0 2.0 60 141
r 0.367174 5 3 ack 40 ------- 0 4.0 3.0 12 129
h 0.367174 3 5 tcp 1040 ------- 0 3.0 4.0 25 162
h 0.367174 3 5 tcp 1040 ------- 0 3.0 4.0 26 163
+ 0.367325 0 5 tcp 1040 ------- 0 0.0 2.0 65 146
- 0.36751 0 5 tcp 1040 ------- 0 0.0 2.0 61 142
r 0.368048 5 3 ack 40 ------- 0 4.0 3.0 13 130
h 0.368048 3 5 tcp 1040 ------- 0 3.0 4.0 27 164
h 0.368048 3 5 tcp 1040 ------- 0 3.0 4.0 28 165
+ 0.368178 0 5 tcp 1040 ------- 0 0.0 2.0 66 147
- 0.368363 0 5 tcp 1040 ------- 0 0.0 2.0 62 143
r 0.368973 5 3 ack 40 ------- 0 4.0 3.0 14 131
h 0.368973 3 5 tcp 1040 ------- 0 3.0 4.0 29 166
h 0.368973 3 5 tcp 1040 ------- 0 3.0 4.0 30 167
+ 0.36903 0 5 tcp 1040 ------- 0 0.0 2.0 67 148
- 0.369216 0 5 tcp 1040 ------- 0 0.0 2.0 63 144
r 0.36983 5 2 tcp 1040 ------- 0 0.0 2.0 51 132
h 0.36983 2 5 ack 40 ------- 0 2.0 0.0 51 168
+ 0.369883 0 5 tcp 1040 ------- 0 0.0 2.0 68 149
- 0.370069 0 5 tcp 1040 ------- 0 0.0 2.0 64 145
r 0.370682 5 2 tcp 1040 ------- 0 0.0 2.0 52 133
h 0.370682 2 5 ack 40 ------- 0 2.0 0.0 52 169
+ 0.370736 0 5 tcp 1040 ------- 0 0.0 2.0 69 150
- 0.370922 0 5 tcp 1040 ------- 0 0.0 2.0 65 146
r 0.371535 5 2 tcp 1040 ------- 0 0.0 2.0 53 134
h 0.371535 2 5 ack 40 ------- 0 2.0 0.0 53 170
+ 0.371589 0 5 tcp 1040 ------- 0 0.0 2.0 70 151
- 0.371774 0 5 tcp 1040 ------- 0 0.0 2.0 66 147
r 0.372388 5 2 tcp 1040 ------- 0 0.0 2.0 54 135
h 0.372388 2 5 ack 40 ------- 0 2.0 0.0 54 171
- 0.372627 0 5 tcp 1040 ------- 0 0.0 2.0 67 148
+ 0.372818 3 5 tcp 1040 ------- 0 3.0 4.0 15 152
- 0.372818 3 5 tcp 1040 ------- 0 3.0 4.0 15 152
+ 0.372818 3 5 tcp 1040 ------- 0 3.0 4.0 16 153
r 0.373241 5 2 tcp 1040 ------- 0 0.0 2.0 55 136
h 0.373241 2 5 ack 40 ------- 0 2.0 0.0 55 172
- 0.37348 0 5 tcp 1040 ------- 0 0.0 2.0 68 149
+ 0.37367 3 5 tcp 1040 ------- 0 3.0 4.0 17 154
+ 0.37367 3 5 tcp 1040 ------- 0 3.0 4.0 18 155
r 0.374094 5 2 tcp 1040 ------- 0 0.0 2.0 56 137
h 0.374094 2 5 ack 40 ------- 0 2.0 0.0 56 173
- 0.37437 3 5 tcp 1040 ------- 0 3.0 4.0 16 153
+ 0.374523 3 5 tcp 1040 ------- 0 3.0 4.0 19 156
+ 0.374523 3 5 tcp 1040 ------- 0 3.0 4.0 20 157
r 0.374946 5 2 tcp 1040 ------- 0 0.0 2.0 57 138
h 0.374946 2 5 ack 40 ------- 0 2.0 0.0 57 174
- 0.375295 3 5 tcp 1040 ------- 0 3.0 4.0 17 154
+ 0.375376 3 5 tcp 1040 ------- 0 3.0 4.0 21 158
+ 0.375376 3 5 tcp 1040 ------- 0 3.0 4.0 22 159
r 0.375799 5 2 tcp 1040 ------- 0 0.0 2.0 58 139
h 0.375799 2 5 ack 40 ------- 0 2.0 0.0 58 175
- 0.376237 0 5 tcp 1040 ------- 0 0.0 2.0 69 150
+ 0.37625 3 5 tcp 1040 ------- 0 3.0 4.0 23 160
+ 0.37625 3 5 tcp 1040 ------- 0 3.0 4.0 24 161
r 0.376652 5 2 tcp 1040 ------- 0 0.0 2.0 59 140
h 0.376652 2 5 ack 40 ------- 0 2.0 0.0 59 176
- 0.37711 0 5 tcp 1040 ------- 0 0.0 2.0 70 151
+ 0.377174 3 5 tcp 1040 ------- 0 3.0 4.0 25 162
+ 0.377174 3 5 tcp 1040 ------- 0 3.0 4.0 26 163
r 0.377505 5 2 tcp 1040 ------- 0 0.0 2.0 60 141